
     Program PWSCF v.6.4.1 starts on 19Apr2021 at 15:53:23 

     This program is part of the open-source Quantum ESPRESSO suite
     for quantum simulation of materials; please cite
         "P. Giannozzi et al., J. Phys.:Condens. Matter 21 395502 (2009);
         "P. Giannozzi et al., J. Phys.:Condens. Matter 29 465901 (2017);
          URL http://www.quantum-espresso.org", 
     in publications or presentations arising from this work. More details at
     http://www.quantum-espresso.org/quote

     Parallel version (MPI), running on    16 processors

     MPI processes distributed on     1 nodes
     R & G space division:  proc/nbgrp/npool/nimage =      16
     Waiting for input...
     Reading input from standard input
Warning: card &IONS ignored
Warning: card / ignored
Warning: card &CELL ignored
Warning: card   PRESS = 0.0, ignored
Warning: card / ignored

     Current dimensions of program PWSCF are:
     Max number of different atomic species (ntypx) = 10
     Max number of k-points (npk) =  40000
     Max angular momentum in pseudopotentials (lmaxx) =  3

     Atomic positions and unit cell read from directory:
     ./temp/CaCO3.save/
 

     IMPORTANT: XC functional enforced from input :
     Exchange-correlation      = WC ( 1  4 11  4 0 0)
     Any further DFT definition will be discarded
     Please, verify this is what you really want


     Subspace diagonalization in iterative solution of the eigenvalue problem:
     a serial algorithm will be used

 
     Parallelization info
     --------------------
     sticks:   dense  smooth     PW     G-vecs:    dense   smooth      PW
     Min         159      79     22                 9073     3203     480
     Max         160      80     23                 9080     3208     485
     Sum        2557    1279    359               145253    51291    7715
 


     bravais-lattice index     =            8
     lattice parameter (alat)  =      10.7061  a.u.
     unit-cell volume          =    1501.1301 (a.u.)^3
     number of atoms/cell      =           20
     number of atomic types    =            3
     number of electrons       =       128.00
     number of Kohn-Sham states=          128
     kinetic-energy cutoff     =      40.0000  Ry
     charge density cutoff     =     320.0000  Ry
     Exchange-correlation      = WC ( 1  4 11  4 0 0)

     celldm(1)=  10.706080  celldm(2)=   0.873580  celldm(3)=   1.400310
     celldm(4)=   0.000000  celldm(5)=   0.000000  celldm(6)=   0.000000

     crystal axes: (cart. coord. in units of alat)
               a(1) = (   1.000000   0.000000   0.000000 )  
               a(2) = (   0.000000   0.873580   0.000000 )  
               a(3) = (   0.000000   0.000000   1.400310 )  

     reciprocal axes: (cart. coord. in units 2 pi/alat)
               b(1) = (  1.000000  0.000000  0.000000 )  
               b(2) = (  0.000000  1.144715  0.000000 )  
               b(3) = (  0.000000  0.000000  0.714128 )  


     PseudoPot. # 1 for Ca read from file:
     /home/rygrim1/bennettj_user/Work/Lead_oxides/PbCO3_14/Surface_calcs/QE_calcs/QE-PSPs/ca_pbe_v1.uspp.F.UPF
     MD5 check sum: 403a4c14b9e4d4dfdc3024c9a3812218
     Pseudo is Ultrasoft + core correction, Zval = 10.0
     Generated by new atomic code, or converted to UPF format
     Using radial grid of  845 points,  6 beta functions with: 
                l(1) =   0
                l(2) =   0
                l(3) =   1
                l(4) =   1
                l(5) =   2
                l(6) =   2
     Q(r) pseudized with  8 coefficients,  rinner =    1.500   1.500   1.500
                                                       1.500   1.500

     PseudoPot. # 2 for C  read from file:
     /home/rygrim1/bennettj_user/Work/Lead_oxides/PbCO3_14/Surface_calcs/QE_calcs/QE-PSPs/c_pbe_v1.2.uspp.F.UPF
     MD5 check sum: d1aef80898a10debaa0f26306b886e00
     Pseudo is Ultrasoft + core correction, Zval =  4.0
     Generated by new atomic code, or converted to UPF format
     Using radial grid of  721 points,  4 beta functions with: 
                l(1) =   0
                l(2) =   0
                l(3) =   1
                l(4) =   1
     Q(r) pseudized with  8 coefficients,  rinner =    1.100   1.100   1.100


     PseudoPot. # 3 for O  read from file:
     /home/rygrim1/bennettj_user/Work/Lead_oxides/PbCO3_14/Surface_calcs/QE_calcs/QE-PSPs/o_pbe_v1.2.uspp.F.UPF
     MD5 check sum: 734c27235a0248c51dbae37a1fbe46ec
     Pseudo is Ultrasoft + core correction, Zval =  6.0
     Generated by new atomic code, or converted to UPF format
     Using radial grid of  737 points,  5 beta functions with: 
                l(1) =   0
                l(2) =   0
                l(3) =   1
                l(4) =   1
                l(5) =   2
     Q(r) pseudized with  8 coefficients,  rinner =    0.900   0.900   0.900
                                                       0.900   0.900

     atomic species   valence    mass     pseudopotential
        Ca            10.00    40.07800     Ca( 1.00)
        C              4.00    12.01100     C ( 1.00)
        O              6.00    15.99990     O ( 1.00)

      8 Sym. Ops., with inversion, found ( 6 have fractional translation)



   Cartesian axes

     site n.     atom                  positions (alat units)
         1           Ca  tau(   1) = (  -0.2405356   0.6551850  -0.8190119  )
         2           O   tau(   2) = (  -0.0969743   0.6551850  -0.1061225  )
         3           O   tau(   3) = (  -0.0889127  -0.0209929  -0.4486206  )
         4           O   tau(   4) = (  -0.0889127   0.4577829  -0.4486206  )
         5           C   tau(   5) = (  -0.0865101   0.6551850  -0.3330558  )
         6           O   tau(   6) = (   0.0889127   0.0209929   0.4486206  )
         7           C   tau(   7) = (   0.0865101   0.2183950   0.3330558  )
         8           O   tau(   8) = (   0.0889127   0.4157971   0.4486206  )
         9           O   tau(   9) = (   0.0969743   0.2183950   0.1061225  )
        10           Ca  tau(  10) = (   0.2405356   0.2183950   0.8190119  )
        11           Ca  tau(  11) = (   0.2594644   0.6551850   1.5191669  )
        12           O   tau(  12) = (   0.4030257   0.6551850   0.8062775  )
        13           O   tau(  13) = (   0.4110873  -0.0209929   1.1487756  )
        14           O   tau(  14) = (   0.4110873   0.4577829   1.1487756  )
        15           C   tau(  15) = (   0.4134899   0.6551850   1.0332108  )
        16           O   tau(  16) = (   0.5889127   0.0209929   0.2515344  )
        17           C   tau(  17) = (   0.5865101   0.2183950   0.3670992  )
        18           O   tau(  18) = (   0.5889127   0.4157971   0.2515344  )
        19           O   tau(  19) = (   0.5969743   0.2183950   0.5940325  )
        20           Ca  tau(  20) = (   0.7405356   0.2183950  -0.1188569  )

     number of k points=    27  gaussian smearing, width (Ry)=  0.0100
                       cart. coord. in units 2pi/alat
        k(    1) = (   0.0833333   0.0953929   0.0595106), wk =   0.0740741
        k(    2) = (   0.0833333   0.0953929   0.1785319), wk =   0.0740741
        k(    3) = (   0.0833333   0.0953929   0.2975532), wk =   0.0740741
        k(    4) = (   0.0833333   0.2861787   0.0595106), wk =   0.0740741
        k(    5) = (   0.0833333   0.2861787   0.1785319), wk =   0.0740741
        k(    6) = (   0.0833333   0.2861787   0.2975532), wk =   0.0740741
        k(    7) = (   0.0833333   0.4769645   0.0595106), wk =   0.0740741
        k(    8) = (   0.0833333   0.4769645   0.1785319), wk =   0.0740741
        k(    9) = (   0.0833333   0.4769645   0.2975532), wk =   0.0740741
        k(   10) = (   0.2500000   0.0953929   0.0595106), wk =   0.0740741
        k(   11) = (   0.2500000   0.0953929   0.1785319), wk =   0.0740741
        k(   12) = (   0.2500000   0.0953929   0.2975532), wk =   0.0740741
        k(   13) = (   0.2500000   0.2861787   0.0595106), wk =   0.0740741
        k(   14) = (   0.2500000   0.2861787   0.1785319), wk =   0.0740741
        k(   15) = (   0.2500000   0.2861787   0.2975532), wk =   0.0740741
        k(   16) = (   0.2500000   0.4769645   0.0595106), wk =   0.0740741
        k(   17) = (   0.2500000   0.4769645   0.1785319), wk =   0.0740741
        k(   18) = (   0.2500000   0.4769645   0.2975532), wk =   0.0740741
        k(   19) = (   0.4166667   0.0953929   0.0595106), wk =   0.0740741
        k(   20) = (   0.4166667   0.0953929   0.1785319), wk =   0.0740741
        k(   21) = (   0.4166667   0.0953929   0.2975532), wk =   0.0740741
        k(   22) = (   0.4166667   0.2861787   0.0595106), wk =   0.0740741
        k(   23) = (   0.4166667   0.2861787   0.1785319), wk =   0.0740741
        k(   24) = (   0.4166667   0.2861787   0.2975532), wk =   0.0740741
        k(   25) = (   0.4166667   0.4769645   0.0595106), wk =   0.0740741
        k(   26) = (   0.4166667   0.4769645   0.1785319), wk =   0.0740741
        k(   27) = (   0.4166667   0.4769645   0.2975532), wk =   0.0740741

     Dense  grid:   145253 G-vectors     FFT dimensions: (  64,  54,  90)

     Smooth grid:    51291 G-vectors     FFT dimensions: (  48,  40,  64)

     Estimated max dynamical RAM per process >      40.31 MB

     Estimated total dynamical RAM >     645.04 MB

     Check: negative core charge=   -0.000002

     The potential is recalculated from file :
     ./temp/CaCO3.save/charge-density

     Starting wfcs are  104 randomized atomic wfcs +   24 random wfcs

     Band Structure Calculation
     Davidson diagonalization with overlap

     ethr =  7.81E-11,  avg # of iterations = 16.3

     total cpu time spent up to now is       44.0 secs

     End of band structure calculation

          k = 0.0833 0.0954 0.0595 (  6426 PWs)   bands (ev):

   -32.2058 -32.1960 -32.1923 -32.1868 -16.3027 -16.2215 -15.9820 -15.8030
   -13.8612 -13.7031 -13.6745 -13.5434 -13.5071 -13.3628 -13.3100 -13.2871
   -13.2713 -13.2588 -13.1795 -13.1320 -12.5921 -12.5594 -12.5040 -12.4925
   -12.4551 -12.4007 -12.2778 -12.1784  -2.4382  -1.9424  -1.7068  -1.7047
    -1.2900  -1.0489  -0.3875  -0.3459  -0.0905   0.0011   0.0269   0.1163
     0.3412   0.3813   1.2477   1.4453   2.7929   3.1264   3.1633   3.3929
     3.5259   3.7075   3.8251   3.9414   4.0670   4.1758   4.2894   4.3276
     4.4478   4.6786   4.7080   4.7478   4.8956   5.5236   5.7652   5.8667
    10.1584  10.7894  11.3577  11.8785  12.2927  12.3807  12.4960  12.5662
    12.9176  13.0584  13.1332  13.1967  13.2905  13.4166  13.5142  13.5406
    13.8685  13.9214  13.9905  14.0489  14.1016  14.2450  14.2943  14.3782
    14.4830  14.5809  16.2413  16.3938  16.5865  17.2134  17.2808  18.1757
    18.3076  18.8630  19.0234  19.1543  19.2884  19.6391  19.7420  19.9590
    20.0432  20.1108  20.4774  20.9070  21.0650  21.1666  21.3316  21.4475
    21.5019  21.6342  21.6687  21.8101  22.0287  22.2024  22.6990  22.9890
    23.2518  23.4335  23.5259  23.8629  24.5125  24.8291  24.8973  25.3160

          k = 0.0833 0.0954 0.1785 (  6418 PWs)   bands (ev):

   -32.2049 -32.1983 -32.1906 -32.1872 -16.2923 -16.2330 -15.9601 -15.8294
   -13.8333 -13.7077 -13.6579 -13.5709 -13.5344 -13.3917 -13.2937 -13.2639
   -13.2537 -13.2416 -13.1896 -13.1333 -12.6086 -12.5854 -12.4976 -12.4652
   -12.4253 -12.3954 -12.2936 -12.2048  -2.3508  -1.9008  -1.8165  -1.7272
    -1.2778  -1.1043  -0.3677  -0.2560  -0.1169   0.0161   0.0559   0.0672
     0.3054   0.3290   1.2725   1.4165   2.9540   3.1807   3.2354   3.4438
     3.4683   3.7603   3.7725   3.8694   3.9661   4.0549   4.3171   4.3580
     4.4403   4.6279   4.7015   4.7341   5.0290   5.5758   5.7378   5.7514
    10.2571  10.7181  11.4906  11.9987  12.1436  12.3854  12.4292  12.5497
    12.9592  13.0149  13.1874  13.2214  13.3441  13.4486  13.5362  13.5588
    13.7705  13.9011  13.9264  13.9958  14.0863  14.1664  14.2420  14.3835
    14.4971  14.6025  16.3346  16.6643  16.8446  17.0356  17.3583  17.9375
    18.1985  18.7708  18.9050  19.0951  19.2516  19.3548  19.7748  20.0155
    20.1814  20.2547  20.4850  20.8289  21.0430  21.2356  21.3720  21.5495
    21.6039  21.6711  21.7775  21.9571  22.1101  22.4503  22.6045  22.8126
    22.9780  23.1701  23.2771  23.6956  24.5185  24.7246  25.1171  25.2344

          k = 0.0833 0.0954 0.2976 (  6434 PWs)   bands (ev):

   -32.2031 -32.2009 -32.1891 -32.1879 -16.2741 -16.2523 -15.9209 -15.8731
   -13.7838 -13.7315 -13.6448 -13.6227 -13.5040 -13.4485 -13.2597 -13.2515
   -13.2406 -13.2155 -13.1982 -13.1544 -12.6024 -12.5946 -12.5083 -12.4927
   -12.3802 -12.3490 -12.3078 -12.2542  -2.1928  -1.9978  -1.8352  -1.7718
    -1.2434  -1.1806  -0.2962  -0.2006  -0.1403  -0.0276   0.0750   0.0987
     0.2545   0.2579   1.3163   1.3688   3.2003   3.2582   3.3372   3.3802
     3.5275   3.6649   3.7378   3.7830   3.8537   3.9488   4.3621   4.4024
     4.4401   4.5372   4.7031   4.7150   5.2582   5.5176   5.6491   5.7119
    10.4171  10.5855  11.7040  11.9340  12.1883  12.3110  12.4275  12.5009
    12.9456  12.9900  13.2323  13.2638  13.4063  13.4240  13.5050  13.5854
    13.7223  13.8556  13.9563  14.0008  14.0185  14.1241  14.2046  14.3011
    14.5418  14.5904  16.5265  16.7772  17.0462  17.2938  17.3804  17.6133
    18.0864  18.2864  18.9137  19.0578  19.1420  19.1940  20.0081  20.0950
    20.2471  20.2962  20.5584  20.7467  21.0587  21.2527  21.4441  21.5433
    21.7600  21.8011  21.9251  21.9715  22.2667  22.3857  22.6046  22.6856
    22.9135  22.9623  23.0192  23.3963  24.5067  24.5735  25.2956  25.3760

          k = 0.0833 0.2862 0.0595 (  6405 PWs)   bands (ev):

   -32.2038 -32.1953 -32.1932 -32.1878 -16.3091 -16.2521 -15.9286 -15.7931
   -13.8545 -13.7562 -13.6675 -13.6105 -13.5167 -13.4743 -13.4506 -13.2972
   -13.2460 -13.2114 -13.1351 -13.0889 -12.5749 -12.5641 -12.5081 -12.4118
   -12.3930 -12.3453 -12.2887 -12.2195  -2.1445  -1.7348  -1.5381  -1.4645
    -1.2420  -1.0072  -0.5608  -0.4966  -0.2471   0.0249   0.1201   0.1692
     0.2258   0.3861   1.2903   1.4341   2.9626   3.1414   3.2280   3.3578
     3.3903   3.6940   3.7105   3.8117   4.0153   4.0429   4.0826   4.1825
     4.3711   4.6189   4.6735   4.6990   4.7981   5.3117   5.5767   5.5894
    10.4186  10.8494  11.5768  12.1147  12.2524  12.3820  12.4838  12.6894
    12.8925  13.0468  13.2376  13.2675  13.4012  13.4402  13.4741  13.5960
    13.8510  13.9044  13.9723  14.0373  14.0872  14.1765  14.3575  14.4857
    14.5136  14.7775  15.9448  16.3701  16.9992  17.1420  17.3448  17.6876
    18.2481  18.6586  19.0729  19.1242  19.2144  19.4845  19.6011  19.9352
    20.0555  20.3085  20.6811  21.2450  21.3095  21.5563  21.6243  21.7144
    21.8469  21.9336  21.9679  22.1545  22.2656  22.6193  22.6981  22.7906
    22.8776  23.5946  23.7502  23.8352  24.6123  24.7771  25.1109  25.1598

          k = 0.0833 0.2862 0.1785 (  6418 PWs)   bands (ev):

   -32.2030 -32.1975 -32.1914 -32.1881 -16.3021 -16.2604 -15.9117 -15.8127
   -13.8478 -13.7498 -13.6808 -13.6175 -13.5263 -13.5122 -13.3675 -13.2798
   -13.2515 -13.1860 -13.1508 -13.0863 -12.6300 -12.6175 -12.5111 -12.4604
   -12.3337 -12.3140 -12.2778 -12.2109  -2.0736  -1.6986  -1.5926  -1.5501
    -1.2297  -1.0634  -0.5358  -0.3600  -0.2873   0.0346   0.1214   0.1504
     0.2244   0.3431   1.3088   1.4136   3.0369   3.1510   3.2734   3.3552
     3.4115   3.5968   3.7264   3.8046   3.8290   4.0567   4.0879   4.2081
     4.3728   4.5355   4.7016   4.7293   4.9219   5.3886   5.4898   5.5894
    10.4775  10.7907  11.6625  12.1068  12.2385  12.3840  12.4606  12.6608
    12.9001  12.9781  13.2110  13.2527  13.4534  13.4905  13.5430  13.6112
    13.7860  13.8902  13.9730  14.0036  14.0656  14.1834  14.2266  14.5018
    14.5299  14.7439  16.0688  16.6736  16.8519  17.2037  17.4235  17.7104
    18.1013  18.5332  18.9156  19.1720  19.3657  19.4424  19.5088  19.8657
    20.1667  20.3982  20.8591  21.0729  21.1160  21.4688  21.7319  21.7405
    21.8026  21.9595  22.0328  22.2417  22.2875  22.4950  22.5434  22.8302
    22.8881  23.3607  23.6953  24.0289  24.5654  24.9774  25.0577  25.2478

          k = 0.0833 0.2862 0.2976 (  6412 PWs)   bands (ev):

   -32.2016 -32.1997 -32.1899 -32.1888 -16.2894 -16.2742 -15.8817 -15.8455
   -13.8237 -13.7857 -13.6488 -13.6298 -13.5540 -13.5281 -13.2831 -13.2494
   -13.2425 -13.1943 -13.1564 -13.1149 -12.6531 -12.6416 -12.5401 -12.5166
   -12.2910 -12.2733 -12.2606 -12.2223  -1.9411  -1.7679  -1.6424  -1.5892
    -1.1963  -1.1366  -0.4589  -0.3678  -0.1962  -0.0520   0.1742   0.1774
     0.2064   0.2648   1.3411   1.3793   3.1719   3.1924   3.2694   3.3526
     3.4638   3.5281   3.6054   3.6231   3.9412   4.0315   4.1161   4.1694
     4.3938   4.4498   4.7283   4.7403   5.1195   5.3244   5.4920   5.5629
    10.5774  10.6912  11.8083  11.9730  12.2987  12.3421  12.5250  12.6109
    12.8944  12.9405  13.1919  13.2153  13.4755  13.5089  13.5692  13.6714
    13.7639  13.8755  13.9347  14.0012  14.0135  14.0393  14.3351  14.4434
    14.6049  14.6887  16.2815  16.5492  17.0498  17.3487  17.6087  17.7501
    17.8681  18.1635  18.9399  19.0997  19.2991  19.3792  19.7007  19.8326
    20.3757  20.4692  20.9693  20.9993  21.0936  21.3513  21.4977  21.6630
    21.8465  21.8937  22.0780  22.2045  22.2773  22.3855  22.6487  22.7837
    23.1230  23.1917  23.7618  23.9917  24.6206  24.8166  25.1308  25.1806

          k = 0.0833 0.4770 0.0595 (  6403 PWs)   bands (ev):

   -32.2005 -32.1971 -32.1918 -32.1896 -16.3090 -16.2890 -15.8534 -15.8021
   -13.8130 -13.7701 -13.7266 -13.6584 -13.6198 -13.5758 -13.4472 -13.3630
   -13.2077 -13.1741 -13.1055 -13.0452 -12.5947 -12.5139 -12.4757 -12.4007
   -12.3577 -12.3500 -12.2553 -12.2254  -1.6976  -1.4525  -1.3670  -1.3559
    -1.1543  -1.0112  -0.6490  -0.5263  -0.4857  -0.1836   0.1720   0.1987
     0.2922   0.3803   1.3508   1.4031   3.0983   3.1344   3.2297   3.2352
     3.2988   3.4088   3.7054   3.7204   3.8187   3.9412   3.9482   4.0436
     4.4594   4.5432   4.6372   4.6460   4.8823   5.1868   5.2303   5.3695
    10.7132  10.8575  11.8068  12.0136  12.3963  12.4341  12.5217  12.7603
    12.8704  12.9814  13.3884  13.4472  13.4546  13.5464  13.5861  13.7162
    13.7798  13.8384  13.8838  13.9276  14.1078  14.3556  14.4298  14.4533
    14.5123  14.8901  15.8054  16.5067  16.5346  16.9535  17.5078  17.7696
    17.9568  18.2255  19.1774  19.2889  19.4098  19.4892  19.5639  19.7879
    20.1640  20.4005  20.9998  21.2305  21.4931  21.7093  21.9461  22.0650
    22.1682  22.2505  22.3259  22.4487  22.5336  22.6413  22.9712  23.1777
    23.6216  23.7895  23.9814  24.2011  24.4006  24.6813  24.8821  25.0535

          k = 0.0833 0.4770 0.1785 (  6401 PWs)   bands (ev):

   -32.2002 -32.1977 -32.1914 -32.1898 -16.3070 -16.2924 -15.8468 -15.8092
   -13.8328 -13.7869 -13.7120 -13.6934 -13.5977 -13.5726 -13.3538 -13.3115
   -13.2252 -13.1857 -13.1069 -13.0598 -12.6519 -12.5918 -12.5451 -12.4590
   -12.2996 -12.2885 -12.2109 -12.1932  -1.6810  -1.4468  -1.4312  -1.3725
    -1.1429  -1.0371  -0.5669  -0.4822  -0.4600  -0.1982   0.1880   0.2049
     0.2706   0.3481   1.3581   1.3962   3.0801   3.1046   3.1790   3.2347
     3.3684   3.3961   3.5630   3.6204   3.9004   3.9487   3.9809   4.0623
     4.3989   4.4508   4.7041   4.7168   4.9530   5.1724   5.3071   5.4070
    10.7162  10.8198  11.8363  11.9898  12.3690  12.3943  12.6021  12.7906
    12.8071  12.8907  13.3280  13.3720  13.5116  13.5942  13.6053  13.7183
    13.7354  13.8226  13.9136  13.9367  14.1442  14.3523  14.3788  14.4798
    14.6133  14.8606  15.7238  16.2054  16.8623  17.2058  17.5419  17.8692
    17.9157  18.3598  19.0599  19.2336  19.4353  19.4747  19.5812  19.7614
    20.1285  20.3015  20.9828  21.0563  21.2716  21.4194  22.0378  22.1316
    22.2171  22.2922  22.3826  22.5935  22.6703  22.8062  23.0074  23.1470
    23.4974  23.5400  23.9513  24.3216  24.3842  24.4516  24.7139  25.0783

          k = 0.0833 0.4770 0.2976 (  6393 PWs)   bands (ev):

   -32.1995 -32.1986 -32.1908 -32.1903 -16.3031 -16.2977 -15.8351 -15.8213
   -13.8259 -13.8058 -13.7376 -13.7375 -13.5466 -13.5267 -13.2730 -13.2701
   -13.2389 -13.2077 -13.1124 -13.0919 -12.6709 -12.6353 -12.5995 -12.5510
   -12.2426 -12.2365 -12.1879 -12.1790  -1.6356  -1.5541  -1.4044  -1.3843
    -1.1167  -1.0775  -0.5056  -0.4773  -0.3488  -0.2485   0.2152   0.2316
     0.2400   0.2914   1.3703   1.3842   3.0858   3.1107   3.1277   3.2165
     3.3862   3.4280   3.4521   3.4940   3.9477   3.9781   4.0205   4.0693
     4.3585   4.3754   4.7505   4.7562   5.0506   5.1297   5.3934   5.4294
    10.7317  10.7689  11.8873  11.9442  12.3546  12.3633  12.6781  12.7301
    12.8106  12.8401  13.2992  13.3152  13.5444  13.5800  13.6325  13.6767
    13.7637  13.8034  13.9120  13.9397  14.1886  14.2489  14.4362  14.4807
    14.7374  14.8224  15.7848  15.9531  17.1416  17.2713  17.6105  17.7195
    18.2212  18.5426  18.9036  19.1092  19.4557  19.5125  19.5717  19.6868
    20.1289  20.2056  20.8075  20.8268  21.2718  21.3155  22.1114  22.2000
    22.2501  22.2989  22.4849  22.6693  22.6869  22.7769  23.0462  23.1308
    23.3084  23.4052  24.1111  24.2260  24.3612  24.4761  24.9638  25.0823

          k = 0.2500 0.0954 0.0595 (  6413 PWs)   bands (ev):

   -32.2033 -32.1956 -32.1928 -32.1893 -16.2445 -16.1887 -16.0159 -15.8776
   -13.8486 -13.7470 -13.6753 -13.4918 -13.4711 -13.4104 -13.3239 -13.2787
   -13.2573 -13.2290 -13.1669 -13.1460 -12.6347 -12.5809 -12.5635 -12.5102
   -12.4325 -12.3117 -12.2998 -12.1666  -2.3445  -1.9409  -1.7670  -1.7250
    -0.9947  -0.7927  -0.3481  -0.3156  -0.0917  -0.0379   0.0013   0.0526
     0.3496   0.3778   0.9028   1.0030   2.7897   2.9447   3.2912   3.6274
     3.6659   3.7309   3.8746   4.0012   4.0665   4.1317   4.2934   4.3338
     4.3537   4.5539   4.6252   4.6679   4.9604   5.3873   5.8276   5.8732
    10.4038  10.7875  11.2491  11.9621  12.2252  12.3076  12.5640  12.6946
    12.7601  12.9790  13.1760  13.2452  13.3678  13.4760  13.5419  13.7742
    13.8866  13.8996  13.9655  14.0673  14.1970  14.2659  14.3301  14.3851
    14.4757  14.7058  15.7319  16.5088  16.5445  17.1505  17.4725  17.6035
    18.2526  18.6053  19.1628  19.3457  19.5145  19.8468  19.8821  20.1837
    20.2914  20.4679  20.5563  20.8618  20.9357  21.0410  21.3426  21.4007
    21.5128  21.5768  21.6807  21.8402  21.8842  22.1094  22.6171  22.6786
    23.2559  23.3364  23.4807  23.7112  24.2855  24.3315  24.8051  25.2462

          k = 0.2500 0.0954 0.1785 (  6410 PWs)   bands (ev):

   -32.2026 -32.1973 -32.1916 -32.1895 -16.2375 -16.1967 -15.9987 -15.8977
   -13.8131 -13.7265 -13.6548 -13.5513 -13.4856 -13.4329 -13.3129 -13.2840
   -13.2612 -13.2300 -13.1792 -13.1413 -12.6111 -12.5794 -12.5343 -12.4632
   -12.4277 -12.3410 -12.3152 -12.1991  -2.2683  -1.9090  -1.8148  -1.7808
    -0.9873  -0.8401  -0.3262  -0.2619  -0.1306   0.0012   0.0090   0.0428
     0.3084   0.3259   0.9114   0.9868   2.9470   3.0524   3.3398   3.5555
     3.6683   3.7628   3.8327   3.9222   3.9403   4.1075   4.2991   4.3529
     4.3603   4.5452   4.5991   4.6550   5.0841   5.4580   5.7501   5.7800
    10.4700  10.7486  11.3456  11.8706  12.2264  12.3376  12.5375  12.7061
    12.9069  13.0255  13.2156  13.2697  13.3966  13.4976  13.5676  13.7060
    13.8585  13.8849  14.0005  14.0082  14.0665  14.2090  14.2267  14.3720
    14.4158  14.6705  15.9389  16.6436  16.7720  17.0692  17.3201  17.5080
    18.2821  18.7197  18.9778  19.3233  19.4375  19.6034  19.9272  20.1649
    20.2820  20.3905  20.5169  20.8655  20.9883  21.2079  21.3925  21.5180
    21.5820  21.6468  21.7603  21.8767  22.0690  22.3442  22.5016  22.5537
    22.9588  23.1479  23.3292  23.5896  24.1548  24.5593  24.7831  25.2824

          k = 0.2500 0.0954 0.2976 (  6416 PWs)   bands (ev):

   -32.2012 -32.1993 -32.1906 -32.1899 -16.2251 -16.2102 -15.9681 -15.9312
   -13.7542 -13.7112 -13.6292 -13.6098 -13.5066 -13.4798 -13.3058 -13.2937
   -13.2380 -13.2120 -13.1957 -13.1642 -12.5786 -12.5686 -12.4969 -12.4557
   -12.4033 -12.3603 -12.3208 -12.2573  -2.1316  -1.9661  -1.8586  -1.8122
    -0.9599  -0.9058  -0.2802  -0.2209  -0.1492  -0.0659   0.0723   0.0896
     0.2491   0.2538   0.9314   0.9598   3.1892   3.2168   3.4156   3.4731
     3.5569   3.6418   3.8000   3.8616   3.9365   4.0326   4.3336   4.3505
     4.4025   4.4797   4.6064   4.6307   5.2980   5.5387   5.5732   5.6863
    10.5725  10.6735  11.5122  11.7051  12.2301  12.2738  12.6843  12.7243
    13.0327  13.1288  13.2286  13.2900  13.3990  13.5107  13.5815  13.6414
    13.7038  13.8495  13.9564  14.0322  14.0468  14.0921  14.2034  14.2786
    14.4786  14.5853  16.2657  16.6254  16.8431  17.0633  17.2990  17.5129
    18.3118  18.5687  18.9221  19.0474  19.4111  19.5468  20.0765  20.1590
    20.3009  20.3814  20.4850  20.6286  21.2114  21.3629  21.4561  21.5684
    21.7023  21.7728  21.8506  21.9475  22.1444  22.2289  22.3850  22.5731
    22.9002  23.0368  23.1130  23.4040  24.1396  24.3196  24.9928  25.1988

          k = 0.2500 0.2862 0.0595 (  6421 PWs)   bands (ev):

   -32.2017 -32.1950 -32.1935 -32.1899 -16.2481 -16.2098 -15.9749 -15.8700
   -13.9122 -13.8586 -13.6069 -13.5675 -13.4729 -13.4591 -13.3504 -13.2964
   -13.2388 -13.2106 -13.1294 -13.0986 -12.6604 -12.5749 -12.5383 -12.4614
   -12.4438 -12.3839 -12.2000 -12.1409  -2.0650  -1.7290  -1.5850  -1.4947
    -0.9466  -0.7534  -0.5007  -0.4512  -0.2391  -0.0443   0.0602   0.1081
     0.2640   0.3718   0.9352   1.0032   2.9124   2.9841   3.3441   3.4695
     3.5367   3.7732   3.8312   3.8511   3.9741   4.0617   4.1126   4.1416
     4.3535   4.5029   4.5921   4.6141   4.8483   5.2154   5.5856   5.6077
    10.6266  10.8849  11.3884  11.9546  12.2923  12.5058  12.5878  12.7670
    12.8901  13.0211  13.2652  13.3760  13.3984  13.5136  13.5288  13.6376
    13.8601  13.8752  13.9312  13.9571  14.0844  14.2026  14.4019  14.4360
    14.5150  15.1095  16.1538  16.2267  16.5322  17.2017  17.5622  17.7140
    17.7471  18.2308  18.9037  19.2843  19.3230  19.7080  19.9389  20.0679
    20.3263  20.5508  20.7552  21.0860  21.3815  21.4665  21.5595  21.6550
    21.7689  22.0453  22.1172  22.1587  22.2133  22.3276  22.5979  22.6714
    22.9798  23.3725  23.7418  23.8476  24.3137  24.3332  24.8538  25.2777

          k = 0.2500 0.2862 0.1785 (  6413 PWs)   bands (ev):

   -32.2011 -32.1967 -32.1922 -32.1901 -16.2437 -16.2157 -15.9620 -15.8854
   -13.8773 -13.8160 -13.6271 -13.5568 -13.5232 -13.4984 -13.3426 -13.2963
   -13.2379 -13.1905 -13.1448 -13.1151 -12.6686 -12.5836 -12.4985 -12.4791
   -12.3936 -12.3549 -12.2397 -12.1580  -2.0035  -1.7023  -1.6106  -1.5768
    -0.9393  -0.8055  -0.4847  -0.3612  -0.2647  -0.0241   0.0820   0.1101
     0.2407   0.3286   0.9432   0.9932   2.9909   3.0261   3.3797   3.4114
     3.5889   3.6243   3.7620   3.8570   3.9120   4.0845   4.1069   4.1695
     4.3527   4.4589   4.5984   4.6343   4.9691   5.3013   5.5039   5.5856
    10.6625  10.8495  11.4597  11.8720  12.2872  12.4208  12.6748  12.7531
    12.9306  13.0941  13.2531  13.3472  13.4310  13.5100  13.5854  13.6551
    13.7949  13.8426  13.9176  13.9767  14.0667  14.2431  14.2960  14.4754
    14.5014  14.8864  16.2716  16.3529  16.9225  17.0196  17.3377  17.6767
    17.7863  18.3396  19.0482  19.0861  19.2930  19.7704  19.9301  20.0901
    20.1599  20.5805  20.9472  20.9753  21.2485  21.4695  21.6477  21.6868
    21.7798  21.9274  22.1059  22.1600  22.2037  22.4811  22.5608  22.6865
    22.7600  23.3214  23.5078  23.8872  24.2754  24.5236  24.9455  25.3606

          k = 0.2500 0.2862 0.2976 (  6421 PWs)   bands (ev):

   -32.1999 -32.1984 -32.1912 -32.1905 -16.2356 -16.2254 -15.9389 -15.9110
   -13.8129 -13.7705 -13.6518 -13.6209 -13.5470 -13.5222 -13.3085 -13.2578
   -13.2418 -13.2210 -13.1674 -13.1362 -12.6423 -12.5975 -12.4977 -12.4636
   -12.3636 -12.3103 -12.2648 -12.2013  -1.8897  -1.7446  -1.6576  -1.6180
    -0.9149  -0.8668  -0.4353  -0.3724  -0.1882  -0.0804   0.1480   0.1533
     0.1987   0.2492   0.9578   0.9762   3.1118   3.1330   3.2881   3.4056
     3.5104   3.6272   3.6583   3.7452   4.0268   4.1022   4.1060   4.1353
     4.3605   4.3991   4.6214   4.6371   5.1563   5.3465   5.4272   5.5262
    10.7223  10.7900  11.5859  11.7366  12.2951  12.3376  12.7321  12.7416
    13.0581  13.1895  13.2035  13.3174  13.4421  13.4703  13.5987  13.6819
    13.7901  13.8337  13.9069  13.9820  14.0396  14.1124  14.3423  14.4390
    14.5662  14.7029  16.4776  16.5571  16.7906  16.9482  17.4329  17.6066
    17.9398  18.3241  18.8160  18.9636  19.5143  19.7335  19.8990  19.9727
    20.3926  20.6742  20.8617  21.0104  21.1631  21.3326  21.6454  21.7428
    21.8217  21.8958  22.0342  22.1500  22.2890  22.3272  22.4481  22.5505
    23.0670  23.1603  23.5480  23.8482  24.3455  24.5014  24.9638  25.0877

          k = 0.2500 0.4770 0.0595 (  6395 PWs)   bands (ev):

   -32.1991 -32.1964 -32.1926 -32.1910 -16.2481 -16.2350 -15.9175 -15.8776
   -13.8901 -13.8545 -13.7658 -13.7121 -13.5098 -13.4615 -13.3280 -13.2711
   -13.1976 -13.1590 -13.1311 -13.0612 -12.6865 -12.6422 -12.5372 -12.4609
   -12.3729 -12.2514 -12.2112 -12.1597  -1.6473  -1.4514  -1.3785  -1.3595
    -0.8719  -0.7558  -0.5953  -0.5056  -0.4581  -0.2342   0.1357   0.2002
     0.2333   0.3431   0.9739   0.9972   3.0119   3.0413   3.1849   3.2467
     3.4928   3.6165   3.7180   3.7621   3.9134   3.9609   3.9729   4.0582
     4.4204   4.4672   4.5383   4.5575   4.9225   5.1748   5.2081   5.3448
    10.8657  10.9533  11.5826  11.7887  12.3779  12.4792  12.7528  12.8097
    13.0045  13.1633  13.3608  13.4261  13.5038  13.5326  13.6138  13.6918
    13.7632  13.7833  13.8453  13.8704  14.2438  14.3500  14.4312  14.4434
    14.4948  15.1325  16.0937  16.6070  16.7140  16.8926  17.1969  17.4572
    17.7940  17.9915  18.9875  19.1440  19.2260  19.4277  19.8671  19.9932
    20.6003  20.6654  20.9048  21.0951  21.5608  21.8802  21.9115  22.0307
    22.0992  22.2783  22.3707  22.4408  22.5752  22.6735  22.9070  23.2223
    23.4493  23.5737  23.8043  24.0706  24.2225  24.4033  24.8028  25.0043

          k = 0.2500 0.4770 0.1785 (  6399 PWs)   bands (ev):

   -32.1988 -32.1969 -32.1923 -32.1912 -16.2473 -16.2378 -15.9130 -15.8839
   -13.8738 -13.8194 -13.7150 -13.6446 -13.5907 -13.5555 -13.3041 -13.2574
   -13.2406 -13.1953 -13.1174 -13.0799 -12.7028 -12.6386 -12.4376 -12.4274
   -12.3733 -12.3191 -12.2095 -12.1583  -1.6338  -1.4378  -1.4320  -1.3825
    -0.8655  -0.7863  -0.5418  -0.4731  -0.4106  -0.2283   0.1517   0.1942
     0.2216   0.3129   0.9792   0.9960   3.0042   3.0290   3.1336   3.2210
     3.5036   3.5905   3.6426   3.7248   3.9067   3.9423   4.0214   4.1155
     4.3593   4.3890   4.5997   4.6205   4.9898   5.1959   5.2520   5.3739
    10.8616  10.9242  11.6110  11.7634  12.3634  12.4262  12.7424  12.7661
    13.0551  13.1993  13.2856  13.3562  13.5116  13.5826  13.6341  13.6806
    13.7273  13.7894  13.8722  13.8916  14.2599  14.3834  14.3952  14.4928
    14.5852  14.9960  15.9379  16.3750  16.8548  17.1741  17.3845  17.6827
    17.7581  17.9151  18.9414  19.1046  19.2092  19.4921  19.9399  19.9987
    20.4151  20.6527  20.9549  21.0820  21.3194  21.6296  21.9065  21.9530
    22.1894  22.3442  22.4056  22.5649  22.6604  22.7575  22.9098  23.1075
    23.3628  23.4591  23.6821  24.0445  24.0635  24.3727  24.8311  24.9400

          k = 0.2500 0.4770 0.2976 (  6406 PWs)   bands (ev):

   -32.1982 -32.1975 -32.1919 -32.1915 -16.2453 -16.2418 -15.9046 -15.8940
   -13.8161 -13.7729 -13.7082 -13.6855 -13.5868 -13.5421 -13.3672 -13.3125
   -13.2311 -13.2242 -13.1167 -13.1031 -12.6374 -12.5644 -12.5312 -12.4524
   -12.3138 -12.2697 -12.2328 -12.1884  -1.5953  -1.5254  -1.4131  -1.3949
    -0.8508  -0.8234  -0.4890  -0.4640  -0.3197  -0.2490   0.1775   0.1943
     0.2142   0.2609   0.9865   0.9925   3.0058   3.0432   3.0865   3.1637
     3.4773   3.5276   3.6477   3.6867   3.9061   3.9260   4.1012   4.1407
     4.3173   4.3266   4.6436   4.6518   5.0828   5.1572   5.3410   5.3850
    10.8652  10.8875  11.6602  11.7165  12.3566  12.3762  12.7171  12.7220
    13.1434  13.2219  13.2459  13.2924  13.5270  13.5745  13.6334  13.6751
    13.7466  13.7935  13.8695  13.9034  14.2815  14.3277  14.4531  14.5026
    14.7092  14.8396  15.9762  16.1336  17.0033  17.1815  17.5523  17.5814
    17.9870  18.3940  18.5678  18.8433  19.3997  19.5048  19.9596  19.9850
    20.4375  20.6772  20.7755  20.9563  21.3489  21.5305  21.8267  21.8710
    22.2797  22.2980  22.5322  22.6306  22.6872  22.7597  22.8684  22.9501
    23.2152  23.3217  23.7983  23.9177  24.2758  24.3579  24.7782  24.8863

          k = 0.4167 0.0954 0.0595 (  6413 PWs)   bands (ev):

   -32.1991 -32.1954 -32.1935 -32.1929 -16.1493 -16.1212 -16.0744 -15.9988
   -13.8308 -13.7995 -13.6169 -13.5398 -13.4273 -13.3849 -13.3422 -13.3232
   -13.2384 -13.2159 -13.1405 -13.1317 -12.6694 -12.6437 -12.5647 -12.5403
   -12.3856 -12.3409 -12.2271 -12.1789  -2.1837  -2.0133  -1.8032  -1.7636
    -0.4611  -0.4319  -0.3250  -0.1488  -0.1195  -0.0689  -0.0330  -0.0035
     0.2998   0.3454   0.3718   0.4014   2.7973   2.8397   3.4813   3.6187
     3.8475   3.8878   3.9727   4.0303   4.0729   4.1740   4.2144   4.2615
     4.3652   4.4250   4.4696   4.5309   5.0747   5.2240   5.8674   5.8785
    10.7886  10.9252  11.0143  11.4417  12.2162  12.3711  12.6598  12.7051
    13.0217  13.1663  13.2055  13.2927  13.3278  13.4964  13.5760  13.8661
    13.8884  13.9153  14.0027  14.0623  14.2399  14.2509  14.3416  14.4371
    14.5108  14.7724  15.4208  16.3220  16.8998  16.9022  17.3341  17.3649
    18.5193  18.7468  18.8441  19.2106  19.5575  20.0829  20.1356  20.3250
    20.3860  20.4844  20.7716  20.8362  20.8849  21.0515  21.1939  21.3988
    21.6350  21.7164  21.7394  21.8518  21.9665  22.0725  22.4909  22.5130
    23.0522  23.2525  23.5132  23.5916  23.5975  23.8375  24.9499  25.1784

          k = 0.4167 0.0954 0.1785 (  6417 PWs)   bands (ev):

   -32.1986 -32.1960 -32.1934 -32.1929 -16.1464 -16.1262 -16.0643 -16.0094
   -13.7893 -13.7608 -13.6045 -13.5479 -13.4512 -13.4232 -13.3732 -13.3639
   -13.2345 -13.2201 -13.1583 -13.1437 -12.6080 -12.5794 -12.5476 -12.5024
   -12.3952 -12.3576 -12.2635 -12.2163  -2.1278  -1.9795  -1.8245  -1.8173
    -0.4710  -0.4548  -0.2981  -0.1746  -0.1541  -0.0367   0.0008   0.0188
     0.3046   0.3106   0.3251   0.3771   2.9461   2.9722   3.5179   3.6153
     3.7559   3.8087   3.8728   3.9989   4.0552   4.2129   4.2356   4.2471
     4.3254   4.4302   4.4705   4.5306   5.1836   5.3142   5.7703   5.7848
    10.8126  10.9146  11.0739  11.3914  12.2199  12.3261  12.7020  12.7487
    13.0852  13.2374  13.2744  13.3502  13.4076  13.5025  13.6107  13.7996
    13.8596  13.9073  14.0301  14.0493  14.1729  14.1872  14.2764  14.3452
    14.4938  14.9808  15.1525  16.0584  17.0100  17.1282  17.3225  17.4543
    18.5502  18.7977  18.8653  19.1443  19.6498  19.7236  20.0805  20.1443
    20.2985  20.3507  20.7323  20.8934  21.0011  21.2250  21.3354  21.5545
    21.6904  21.7422  21.7910  21.9550  22.0172  22.2616  22.3331  22.4402
    22.9942  23.1575  23.3521  23.4655  23.6225  23.8378  24.8983  25.1397

          k = 0.4167 0.0954 0.2976 (  6433 PWs)   bands (ev):

   -32.1978 -32.1969 -32.1932 -32.1930 -16.1408 -16.1335 -16.0472 -16.0273
   -13.7233 -13.7057 -13.5849 -13.5694 -13.5163 -13.5052 -13.3832 -13.3721
   -13.2194 -13.2101 -13.1804 -13.1696 -12.5553 -12.5440 -12.4732 -12.4434
   -12.4082 -12.3873 -12.3098 -12.2787  -2.0305  -1.9337  -1.9054  -1.8649
    -0.4834  -0.4718  -0.2736  -0.2275  -0.1238  -0.0722   0.0718   0.0784
     0.2428   0.2470   0.3318   0.3508   3.1776   3.1827   3.5260   3.5588
     3.5774   3.6378   3.8812   3.9291   4.1127   4.1830   4.2503   4.2844
     4.3057   4.3705   4.5017   4.5220   5.3702   5.4644   5.5875   5.6385
    10.8513  10.8895  11.1754  11.2932  12.2420  12.2813  12.7367  12.7625
    13.2173  13.3254  13.3430  13.4250  13.4549  13.5177  13.7005  13.7477
    13.7754  13.8839  14.0266  14.0557  14.0965  14.1148  14.2027  14.2395
    14.5939  14.8266  15.2968  15.6738  17.1368  17.2377  17.4168  17.5090
    18.6706  18.8085  18.9406  19.1577  19.2936  19.5096  20.0354  20.0878
    20.2510  20.2785  20.7446  20.8135  21.2869  21.4162  21.5405  21.6096
    21.6893  21.7676  21.8817  21.9330  22.0730  22.1300  22.3180  22.5561
    22.9263  23.0488  23.1277  23.3430  23.7033  23.7927  24.8001  24.8878

          k = 0.4167 0.2862 0.0595 (  6413 PWs)   bands (ev):

   -32.1981 -32.1949 -32.1939 -32.1930 -16.1464 -16.1267 -16.0535 -15.9957
   -13.9430 -13.9258 -13.5827 -13.5676 -13.4408 -13.3885 -13.3175 -13.2389
   -13.2196 -13.1997 -13.1336 -13.1171 -12.7255 -12.6683 -12.5445 -12.5044
   -12.4355 -12.4010 -12.1319 -12.1103  -1.9277  -1.7805  -1.6104  -1.5519
    -0.4687  -0.4280  -0.3930  -0.2434  -0.1958  -0.1414   0.0077   0.0394
     0.2640   0.3208   0.3504   0.4206   2.8823   2.8997   3.4528   3.5148
     3.6721   3.8201   3.8575   3.9555   4.0581   4.1074   4.1855   4.2466
     4.2727   4.3395   4.4028   4.4552   4.9483   5.0800   5.6019   5.6133
    10.9302  11.0752  11.1496  11.5311  12.3079  12.4510  12.6647  12.7395
    12.9933  13.2109  13.2748  13.3962  13.5011  13.5714  13.5948  13.7870
    13.8052  13.8701  13.9060  13.9259  14.2195  14.2384  14.4002  14.4848
    14.5092  15.1553  15.9141  16.5749  16.7640  17.0403  17.2840  17.4471
    17.7989  18.1262  18.4864  19.0394  19.7129  19.8122  19.8661  20.1365
    20.5380  20.7465  21.0209  21.1760  21.4548  21.4676  21.5405  21.6688
    21.8876  21.9451  22.0568  22.0962  22.2843  22.3169  22.5672  22.5944
    23.0577  23.2646  23.5704  23.7166  23.8198  23.8819  24.9310  25.0945

          k = 0.4167 0.2862 0.1785 (  6431 PWs)   bands (ev):

   -32.1977 -32.1955 -32.1936 -32.1931 -16.1449 -16.1307 -16.0465 -16.0044
   -13.8907 -13.8708 -13.5703 -13.5381 -13.5095 -13.4299 -13.4018 -13.2884
   -13.2242 -13.1877 -13.1533 -13.1318 -12.6635 -12.5847 -12.5203 -12.4595
   -12.4427 -12.3978 -12.1802 -12.1475  -1.8838  -1.7565  -1.6285  -1.6031
    -0.5031  -0.4339  -0.3953  -0.2407  -0.2015  -0.0916   0.0445   0.0621
     0.2422   0.3011   0.3390   0.4031   2.9575   2.9628   3.4428   3.4865
     3.6180   3.7013   3.8221   3.9481   4.0731   4.1086   4.1897   4.2422
     4.2824   4.3252   4.4156   4.4572   5.0597   5.1785   5.5332   5.5653
    10.9455  11.0495  11.1975  11.4746  12.3096  12.4014  12.6819  12.7241
    13.0378  13.2261  13.3607  13.4456  13.4602  13.5413  13.6818  13.7524
    13.7837  13.8146  13.9054  13.9425  14.2228  14.2745  14.3843  14.4819
    14.5581  15.2923  15.5240  16.3565  16.8210  17.1139  17.3464  17.4731
    17.8899  18.2836  18.7098  19.0367  19.5532  19.8508  19.8870  19.9926
    20.6403  20.7156  20.8624  21.1601  21.3755  21.4365  21.6639  21.7390
    21.8174  21.8855  22.0174  22.0976  22.3291  22.4245  22.4669  22.5166
    22.9974  23.2392  23.4095  23.7020  23.8464  23.8842  25.0492  25.2392

          k = 0.4167 0.2862 0.2976 (  6417 PWs)   bands (ev):

   -32.1971 -32.1963 -32.1934 -32.1932 -16.1415 -16.1364 -16.0340 -16.0187
   -13.7990 -13.7808 -13.6266 -13.6129 -13.5171 -13.4771 -13.4048 -13.3461
   -13.2207 -13.2062 -13.1602 -13.1470 -12.5957 -12.5524 -12.4718 -12.4472
   -12.4051 -12.3499 -12.2525 -12.2160  -1.8059  -1.7337  -1.6770  -1.6565
    -0.5125  -0.4859  -0.3494  -0.2903  -0.1437  -0.0961   0.1166   0.1291
     0.1917   0.2281   0.3538   0.3765   3.0808   3.0942   3.3186   3.3694
     3.5959   3.6482   3.8292   3.8819   4.1039   4.1171   4.2107   4.2530
     4.2655   4.2970   4.4349   4.4518   5.2281   5.3193   5.4079   5.4676
    10.9747  11.0125  11.2799  11.3810  12.3193  12.3494  12.6984  12.7096
    13.1370  13.2470  13.3226  13.4030  13.5418  13.5888  13.6907  13.7184
    13.7675  13.7802  13.9391  13.9570  14.2425  14.2791  14.3756  14.4230
    14.7505  15.0751  15.6043  15.9729  16.9044  17.0257  17.4557  17.4741
    18.2066  18.3900  18.8937  19.0965  19.3183  19.6500  19.8978  19.9221
    20.7960  20.8280  20.9098  21.0963  21.2188  21.3225  21.6529  21.7193
    21.9062  21.9251  22.0200  22.0921  22.2621  22.3124  22.3540  22.3957
    23.1535  23.2173  23.3866  23.6435  23.9146  23.9457  24.9943  25.0417

          k = 0.4167 0.4770 0.0595 (  6388 PWs)   bands (ev):

   -32.1966 -32.1951 -32.1940 -32.1934 -16.1419 -16.1348 -16.0239 -16.0017
   -13.9285 -13.9149 -13.7873 -13.7680 -13.3872 -13.3078 -13.2689 -13.2334
   -13.1867 -13.1557 -13.1229 -13.0919 -12.7553 -12.6864 -12.6573 -12.5773
   -12.2882 -12.2397 -12.1570 -12.1335  -1.5619  -1.4731  -1.3981  -1.3746
    -0.5374  -0.5056  -0.4603  -0.3410  -0.2826  -0.2384   0.1152   0.1528
     0.2093   0.2877   0.3560   0.3985   2.9725   2.9837   3.1890   3.2202
     3.6390   3.6980   3.7621   3.8024   4.0379   4.0493   4.1336   4.2119
     4.2879   4.2980   4.3557   4.4125   4.9960   5.0875   5.2508   5.3014
    11.0963  11.1734  11.3335  11.4950  12.4370  12.5673  12.6134  12.7110
    13.1437  13.3307  13.3982  13.4322  13.4745  13.5405  13.5786  13.6225
    13.7376  13.7892  13.8605  13.8805  14.3571  14.3890  14.4363  14.4443
    14.8775  15.7856  15.8023  16.4654  16.7723  17.1041  17.2117  17.4244
    17.6183  17.8774  18.1329  18.6470  19.4895  19.5480  19.7123  19.8623
    20.9318  21.0889  21.2089  21.3493  21.7073  21.7267  21.8332  21.9422
    22.2182  22.2744  22.3500  22.4965  22.5194  22.6998  22.7978  22.9962
    23.5008  23.5386  23.6834  23.9229  24.1171  24.2391  24.7417  24.8902

          k = 0.4167 0.4770 0.1785 (  6401 PWs)   bands (ev):

   -32.1964 -32.1954 -32.1938 -32.1934 -16.1424 -16.1372 -16.0223 -16.0061
   -13.8799 -13.8511 -13.7432 -13.7063 -13.4860 -13.4207 -13.3621 -13.2778
   -13.2018 -13.1870 -13.1402 -13.1194 -12.6704 -12.5816 -12.5572 -12.4761
   -12.3360 -12.2726 -12.2080 -12.1651  -1.5540  -1.4713  -1.4157  -1.4053
    -0.5262  -0.5101  -0.4496  -0.3358  -0.2317  -0.2125   0.1263   0.1440
     0.2049   0.2598   0.3684   0.3975   2.9628   2.9778   3.1318   3.1723
     3.6211   3.6860   3.7399   3.8274   3.9862   4.0091   4.1703   4.2202
     4.2521   4.2732   4.4113   4.4476   5.0662   5.1621   5.2499   5.3162
    11.0935  11.1480  11.3499  11.4673  12.4259  12.4979  12.6188  12.6677
    13.1609  13.3012  13.3701  13.4036  13.5193  13.5538  13.5957  13.6318
    13.7303  13.8053  13.8445  13.8874  14.3958  14.4265  14.4787  14.4913
    14.9542  15.6521  15.8719  16.2748  16.7106  16.9232  17.0095  17.3045
    17.8936  18.2387  18.6031  18.8357  19.3860  19.5336  19.7375  19.8326
    20.8215  20.9334  21.0968  21.3165  21.4934  21.6728  21.7493  21.8263
    22.3179  22.3710  22.4167  22.5565  22.6214  22.6498  22.7373  22.8382
    23.4082  23.4849  23.6318  23.7322  23.9810  24.1748  24.8519  24.9359

          k = 0.4167 0.4770 0.2976 (  6421 PWs)   bands (ev):

   -32.1961 -32.1957 -32.1937 -32.1935 -16.1422 -16.1403 -16.0186 -16.0127
   -13.7843 -13.7474 -13.6784 -13.6451 -13.5875 -13.5334 -13.4855 -13.4165
   -13.1988 -13.1949 -13.1424 -13.1362 -12.5442 -12.4709 -12.4316 -12.4190
   -12.3797 -12.3157 -12.2924 -12.2332  -1.5304  -1.4912  -1.4372  -1.4244
    -0.5284  -0.5157  -0.4021  -0.3527  -0.1869  -0.1786   0.1398   0.1447
     0.1987   0.2213   0.3818   0.3920   2.9744   2.9962   3.0589   3.0937
     3.6123   3.6416   3.7756   3.8175   3.9572   3.9727   4.1804   4.1935
     4.2621   4.2790   4.4526   4.4661   5.1568   5.2200   5.2573   5.3097
    11.0975  11.1167  11.3812  11.4240  12.4201  12.4413  12.6127  12.6258
    13.2006  13.2577  13.3386  13.3638  13.5615  13.5754  13.6087  13.6269
    13.7657  13.7997  13.8518  13.8708  14.4434  14.4587  14.5121  14.5244
    15.1237  15.3765  16.0310  16.1865  16.6091  16.7006  16.9687  17.1137
    18.4259  18.5818  18.8771  18.9857  19.2505  19.4733  19.7428  19.7544
    20.7079  20.8284  21.0611  21.1219  21.4731  21.5562  21.6824  21.7434
    22.3118  22.3370  22.5033  22.5379  22.6114  22.6695  22.7099  22.8118
    23.2888  23.3518  23.6061  23.6589  24.1401  24.2270  24.7668  24.8102

     the Fermi energy is     7.4837 ev

     Writing output data file CaCO3.save/
 
     init_run     :      0.28s CPU      0.31s WALL (       1 calls)
     electrons    :     42.68s CPU     43.57s WALL (       1 calls)

     Called by init_run:
     wfcinit      :      0.00s CPU      0.00s WALL (       1 calls)
     potinit      :      0.01s CPU      0.02s WALL (       1 calls)
     hinit0       :      0.14s CPU      0.15s WALL (       1 calls)

     Called by electrons:
     c_bands      :     42.68s CPU     43.57s WALL (       1 calls)
     v_of_rho     :      0.01s CPU      0.01s WALL (       1 calls)
     newd         :      0.04s CPU      0.06s WALL (       1 calls)

     Called by c_bands:
     init_us_2    :      0.02s CPU      0.02s WALL (      27 calls)
     cegterg      :     41.50s CPU     42.29s WALL (      27 calls)

     Called by sum_band:

     Called by *egterg:
     h_psi        :      7.37s CPU      7.93s WALL (     493 calls)
     s_psi        :      0.74s CPU      0.75s WALL (     493 calls)
     g_psi        :      0.05s CPU      0.05s WALL (     439 calls)
     cdiaghg      :     29.28s CPU     29.38s WALL (     466 calls)

     Called by h_psi:
     h_psi:pot    :      7.31s CPU      7.87s WALL (     493 calls)
     h_psi:calbec :      0.80s CPU      0.90s WALL (     493 calls)
     vloc_psi     :      5.75s CPU      6.19s WALL (     493 calls)
     add_vuspsi   :      0.76s CPU      0.77s WALL (     493 calls)

     General routines
     calbec       :      0.80s CPU      0.90s WALL (     493 calls)
     fft          :      0.01s CPU      0.01s WALL (      13 calls)
     ffts         :      0.00s CPU      0.00s WALL (       1 calls)
     fftw         :      5.14s CPU      5.54s WALL (   72812 calls)
     interpolate  :      0.00s CPU      0.00s WALL (       1 calls)
     davcio       :      0.02s CPU      0.04s WALL (      54 calls)
 
     Parallel routines
     fft_scatt_xy :      0.65s CPU      0.70s WALL (   72826 calls)
     fft_scatt_yz :      2.11s CPU      2.27s WALL (   72826 calls)
 
     PWSCF        :     43.32s CPU     47.25s WALL

 
   This run was terminated on:  15:54:10  19Apr2021            

=------------------------------------------------------------------------------=
   JOB DONE.
=------------------------------------------------------------------------------=
