
     Program PWSCF v.6.4.1 starts on 19Apr2021 at 15:52:15 

     This program is part of the open-source Quantum ESPRESSO suite
     for quantum simulation of materials; please cite
         "P. Giannozzi et al., J. Phys.:Condens. Matter 21 395502 (2009);
         "P. Giannozzi et al., J. Phys.:Condens. Matter 29 465901 (2017);
          URL http://www.quantum-espresso.org", 
     in publications or presentations arising from this work. More details at
     http://www.quantum-espresso.org/quote

     Parallel version (MPI), running on    16 processors

     MPI processes distributed on     1 nodes
     R & G space division:  proc/nbgrp/npool/nimage =      16
     Waiting for input...
     Reading input from standard input
Warning: card &IONS ignored
Warning: card / ignored
Warning: card &CELL ignored
Warning: card   PRESS = 0.0, ignored
Warning: card / ignored

     Current dimensions of program PWSCF are:
     Max number of different atomic species (ntypx) = 10
     Max number of k-points (npk) =  40000
     Max angular momentum in pseudopotentials (lmaxx) =  3

     IMPORTANT: XC functional enforced from input :
     Exchange-correlation      = WC ( 1  4 11  4 0 0)
     Any further DFT definition will be discarded
     Please, verify this is what you really want


     Subspace diagonalization in iterative solution of the eigenvalue problem:
     a serial algorithm will be used

 
     Parallelization info
     --------------------
     sticks:   dense  smooth     PW     G-vecs:    dense   smooth      PW
     Min         159      79     22                 9073     3203     480
     Max         160      80     23                 9080     3208     485
     Sum        2557    1279    359               145253    51291    7715
 


     bravais-lattice index     =            8
     lattice parameter (alat)  =      10.7061  a.u.
     unit-cell volume          =    1501.1301 (a.u.)^3
     number of atoms/cell      =           20
     number of atomic types    =            3
     number of electrons       =       128.00
     number of Kohn-Sham states=          128
     kinetic-energy cutoff     =      40.0000  Ry
     charge density cutoff     =     320.0000  Ry
     convergence threshold     =      1.0E-07
     mixing beta               =       0.2000
     number of iterations used =            8  plain     mixing
     Exchange-correlation      = WC ( 1  4 11  4 0 0)

     celldm(1)=  10.706080  celldm(2)=   0.873580  celldm(3)=   1.400310
     celldm(4)=   0.000000  celldm(5)=   0.000000  celldm(6)=   0.000000

     crystal axes: (cart. coord. in units of alat)
               a(1) = (   1.000000   0.000000   0.000000 )  
               a(2) = (   0.000000   0.873580   0.000000 )  
               a(3) = (   0.000000   0.000000   1.400310 )  

     reciprocal axes: (cart. coord. in units 2 pi/alat)
               b(1) = (  1.000000  0.000000  0.000000 )  
               b(2) = (  0.000000  1.144715  0.000000 )  
               b(3) = (  0.000000  0.000000  0.714128 )  


     PseudoPot. # 1 for Ca read from file:
     /home/rygrim1/bennettj_user/Work/Lead_oxides/PbCO3_14/Surface_calcs/QE_calcs/QE-PSPs/ca_pbe_v1.uspp.F.UPF
     MD5 check sum: 403a4c14b9e4d4dfdc3024c9a3812218
     Pseudo is Ultrasoft + core correction, Zval = 10.0
     Generated by new atomic code, or converted to UPF format
     Using radial grid of  845 points,  6 beta functions with: 
                l(1) =   0
                l(2) =   0
                l(3) =   1
                l(4) =   1
                l(5) =   2
                l(6) =   2
     Q(r) pseudized with  8 coefficients,  rinner =    1.500   1.500   1.500
                                                       1.500   1.500

     PseudoPot. # 2 for C  read from file:
     /home/rygrim1/bennettj_user/Work/Lead_oxides/PbCO3_14/Surface_calcs/QE_calcs/QE-PSPs/c_pbe_v1.2.uspp.F.UPF
     MD5 check sum: d1aef80898a10debaa0f26306b886e00
     Pseudo is Ultrasoft + core correction, Zval =  4.0
     Generated by new atomic code, or converted to UPF format
     Using radial grid of  721 points,  4 beta functions with: 
                l(1) =   0
                l(2) =   0
                l(3) =   1
                l(4) =   1
     Q(r) pseudized with  8 coefficients,  rinner =    1.100   1.100   1.100


     PseudoPot. # 3 for O  read from file:
     /home/rygrim1/bennettj_user/Work/Lead_oxides/PbCO3_14/Surface_calcs/QE_calcs/QE-PSPs/o_pbe_v1.2.uspp.F.UPF
     MD5 check sum: 734c27235a0248c51dbae37a1fbe46ec
     Pseudo is Ultrasoft + core correction, Zval =  6.0
     Generated by new atomic code, or converted to UPF format
     Using radial grid of  737 points,  5 beta functions with: 
                l(1) =   0
                l(2) =   0
                l(3) =   1
                l(4) =   1
                l(5) =   2
     Q(r) pseudized with  8 coefficients,  rinner =    0.900   0.900   0.900
                                                       0.900   0.900

     atomic species   valence    mass     pseudopotential
        Ca            10.00    40.07800     Ca( 1.00)
        C              4.00    12.01100     C ( 1.00)
        O              6.00    15.99990     O ( 1.00)

      8 Sym. Ops., with inversion, found ( 6 have fractional translation)



   Cartesian axes

     site n.     atom                  positions (alat units)
         1           Ca  tau(   1) = (  -0.2405356   0.6551850  -0.8190119  )
         2           O   tau(   2) = (  -0.0969743   0.6551850  -0.1061225  )
         3           O   tau(   3) = (  -0.0889127  -0.0209929  -0.4486206  )
         4           O   tau(   4) = (  -0.0889127   0.4577829  -0.4486206  )
         5           C   tau(   5) = (  -0.0865101   0.6551850  -0.3330558  )
         6           O   tau(   6) = (   0.0889127   0.0209929   0.4486206  )
         7           C   tau(   7) = (   0.0865101   0.2183950   0.3330558  )
         8           O   tau(   8) = (   0.0889127   0.4157971   0.4486206  )
         9           O   tau(   9) = (   0.0969743   0.2183950   0.1061225  )
        10           Ca  tau(  10) = (   0.2405356   0.2183950   0.8190119  )
        11           Ca  tau(  11) = (   0.2594644   0.6551850   1.5191669  )
        12           O   tau(  12) = (   0.4030257   0.6551850   0.8062775  )
        13           O   tau(  13) = (   0.4110873  -0.0209929   1.1487756  )
        14           O   tau(  14) = (   0.4110873   0.4577829   1.1487756  )
        15           C   tau(  15) = (   0.4134899   0.6551850   1.0332108  )
        16           O   tau(  16) = (   0.5889127   0.0209929   0.2515344  )
        17           C   tau(  17) = (   0.5865101   0.2183950   0.3670992  )
        18           O   tau(  18) = (   0.5889127   0.4157971   0.2515344  )
        19           O   tau(  19) = (   0.5969743   0.2183950   0.5940325  )
        20           Ca  tau(  20) = (   0.7405356   0.2183950  -0.1188569  )

     number of k points=    27  gaussian smearing, width (Ry)=  0.0100
                       cart. coord. in units 2pi/alat
        k(    1) = (   0.0833333   0.0953929   0.0595106), wk =   0.0740741
        k(    2) = (   0.0833333   0.0953929   0.1785319), wk =   0.0740741
        k(    3) = (   0.0833333   0.0953929   0.2975532), wk =   0.0740741
        k(    4) = (   0.0833333   0.2861787   0.0595106), wk =   0.0740741
        k(    5) = (   0.0833333   0.2861787   0.1785319), wk =   0.0740741
        k(    6) = (   0.0833333   0.2861787   0.2975532), wk =   0.0740741
        k(    7) = (   0.0833333   0.4769645   0.0595106), wk =   0.0740741
        k(    8) = (   0.0833333   0.4769645   0.1785319), wk =   0.0740741
        k(    9) = (   0.0833333   0.4769645   0.2975532), wk =   0.0740741
        k(   10) = (   0.2500000   0.0953929   0.0595106), wk =   0.0740741
        k(   11) = (   0.2500000   0.0953929   0.1785319), wk =   0.0740741
        k(   12) = (   0.2500000   0.0953929   0.2975532), wk =   0.0740741
        k(   13) = (   0.2500000   0.2861787   0.0595106), wk =   0.0740741
        k(   14) = (   0.2500000   0.2861787   0.1785319), wk =   0.0740741
        k(   15) = (   0.2500000   0.2861787   0.2975532), wk =   0.0740741
        k(   16) = (   0.2500000   0.4769645   0.0595106), wk =   0.0740741
        k(   17) = (   0.2500000   0.4769645   0.1785319), wk =   0.0740741
        k(   18) = (   0.2500000   0.4769645   0.2975532), wk =   0.0740741
        k(   19) = (   0.4166667   0.0953929   0.0595106), wk =   0.0740741
        k(   20) = (   0.4166667   0.0953929   0.1785319), wk =   0.0740741
        k(   21) = (   0.4166667   0.0953929   0.2975532), wk =   0.0740741
        k(   22) = (   0.4166667   0.2861787   0.0595106), wk =   0.0740741
        k(   23) = (   0.4166667   0.2861787   0.1785319), wk =   0.0740741
        k(   24) = (   0.4166667   0.2861787   0.2975532), wk =   0.0740741
        k(   25) = (   0.4166667   0.4769645   0.0595106), wk =   0.0740741
        k(   26) = (   0.4166667   0.4769645   0.1785319), wk =   0.0740741
        k(   27) = (   0.4166667   0.4769645   0.2975532), wk =   0.0740741

     Dense  grid:   145253 G-vectors     FFT dimensions: (  64,  54,  90)

     Smooth grid:    51291 G-vectors     FFT dimensions: (  48,  40,  64)

     Estimated max dynamical RAM per process >      63.92 MB

     Estimated total dynamical RAM >    1022.73 MB

     Check: negative core charge=   -0.000002

     Initial potential from superposition of free atoms

     starting charge  127.97799, renormalised to  128.00000
     Starting wfcs are  104 randomized atomic wfcs +   24 random wfcs

     total cpu time spent up to now is        1.8 secs

     Self-consistent Calculation

     iteration #  1     ecut=    40.00 Ry     beta= 0.20
     Davidson diagonalization with overlap
     ethr =  1.00E-02,  avg # of iterations =  4.4

     total cpu time spent up to now is       13.4 secs

     total energy              =    -733.80890488 Ry
     Harris-Foulkes estimate   =    -734.57282975 Ry
     estimated scf accuracy    <       2.71545071 Ry

     iteration #  2     ecut=    40.00 Ry     beta= 0.20
     Davidson diagonalization with overlap
     ethr =  2.12E-03,  avg # of iterations =  1.0

     total cpu time spent up to now is       17.2 secs

     total energy              =    -733.71546185 Ry
     Harris-Foulkes estimate   =    -733.96188894 Ry
     estimated scf accuracy    <       0.64380916 Ry

     iteration #  3     ecut=    40.00 Ry     beta= 0.20
     Davidson diagonalization with overlap
     ethr =  5.03E-04,  avg # of iterations =  2.1

     total cpu time spent up to now is       22.1 secs

     total energy              =    -733.79260448 Ry
     Harris-Foulkes estimate   =    -733.80773942 Ry
     estimated scf accuracy    <       0.08097516 Ry

     iteration #  4     ecut=    40.00 Ry     beta= 0.20
     Davidson diagonalization with overlap
     ethr =  6.33E-05,  avg # of iterations =  2.9

     total cpu time spent up to now is       27.7 secs

     total energy              =    -733.79752349 Ry
     Harris-Foulkes estimate   =    -733.79906967 Ry
     estimated scf accuracy    <       0.01009912 Ry

     iteration #  5     ecut=    40.00 Ry     beta= 0.20
     Davidson diagonalization with overlap
     ethr =  7.89E-06,  avg # of iterations =  4.5

     total cpu time spent up to now is       36.0 secs

     total energy              =    -733.79854826 Ry
     Harris-Foulkes estimate   =    -733.79967145 Ry
     estimated scf accuracy    <       0.00267281 Ry

     iteration #  6     ecut=    40.00 Ry     beta= 0.20
     Davidson diagonalization with overlap
     ethr =  2.09E-06,  avg # of iterations =  2.1

     total cpu time spent up to now is       41.1 secs

     total energy              =    -733.79922454 Ry
     Harris-Foulkes estimate   =    -733.79917322 Ry
     estimated scf accuracy    <       0.00020496 Ry

     iteration #  7     ecut=    40.00 Ry     beta= 0.20
     Davidson diagonalization with overlap
     ethr =  1.60E-07,  avg # of iterations =  2.0

     total cpu time spent up to now is       46.0 secs

     total energy              =    -733.79925379 Ry
     Harris-Foulkes estimate   =    -733.79925613 Ry
     estimated scf accuracy    <       0.00005469 Ry

     iteration #  8     ecut=    40.00 Ry     beta= 0.20
     Davidson diagonalization with overlap
     ethr =  4.27E-08,  avg # of iterations =  1.0

     total cpu time spent up to now is       49.9 secs

     total energy              =    -733.79926811 Ry
     Harris-Foulkes estimate   =    -733.79926224 Ry
     estimated scf accuracy    <       0.00000487 Ry

     iteration #  9     ecut=    40.00 Ry     beta= 0.20
     Davidson diagonalization with overlap
     ethr =  3.80E-09,  avg # of iterations =  2.0

     total cpu time spent up to now is       55.2 secs

     total energy              =    -733.79927240 Ry
     Harris-Foulkes estimate   =    -733.79926913 Ry
     estimated scf accuracy    <       0.00000079 Ry

     iteration # 10     ecut=    40.00 Ry     beta= 0.20
     Davidson diagonalization with overlap
     ethr =  6.20E-10,  avg # of iterations =  2.0

     total cpu time spent up to now is       60.4 secs

     total energy              =    -733.79927485 Ry
     Harris-Foulkes estimate   =    -733.79927268 Ry
     estimated scf accuracy    <       0.00000020 Ry

     iteration # 11     ecut=    40.00 Ry     beta= 0.20
     Davidson diagonalization with overlap
     ethr =  1.55E-10,  avg # of iterations =  2.0

     total cpu time spent up to now is       65.5 secs

     End of self-consistent calculation

          k = 0.0833 0.0954 0.0595 (  6426 PWs)   bands (ev):

   -32.2056 -32.1958 -32.1921 -32.1866 -16.3027 -16.2216 -15.9821 -15.8030
   -13.8612 -13.7030 -13.6744 -13.5433 -13.5071 -13.3626 -13.3098 -13.2869
   -13.2711 -13.2587 -13.1793 -13.1318 -12.5921 -12.5593 -12.5039 -12.4925
   -12.4551 -12.4006 -12.2778 -12.1783  -2.4382  -1.9425  -1.7069  -1.7048
    -1.2901  -1.0489  -0.3875  -0.3459  -0.0906   0.0012   0.0269   0.1163
     0.3412   0.3812   1.2477   1.4453   2.7928   3.1264   3.1633   3.3929
     3.5259   3.7075   3.8251   3.9414   4.0670   4.1758   4.2894   4.3276
     4.4478   4.6786   4.7081   4.7477   4.8956   5.5235   5.7652   5.8667
    10.1583  10.7893  11.3577  11.8784  12.2926  12.3806  12.4959  12.5662
    12.9176  13.0584  13.1332  13.1967  13.2906  13.4167  13.5143  13.5406
    13.8686  13.9215  13.9906  14.0489  14.1017  14.2451  14.2944  14.3782
    14.4831  14.5810  16.2410  16.3936  16.5863  17.2132  17.2807  18.1756
    18.3073  18.8628  19.0233  19.1541  19.2882  19.6390  19.7419  19.9589
    20.0431  20.1106  20.4773  20.9069  21.0650  21.1665  21.3315  21.4474
    21.5019  21.6341  21.6687  21.8100  22.0286  22.2023  22.6990  22.9889
    23.2517  23.4334  23.5258  23.8627  24.5125  24.8291  24.8972  25.3160

          k = 0.0833 0.0954 0.1785 (  6418 PWs)   bands (ev):

   -32.2047 -32.1981 -32.1904 -32.1870 -16.2924 -16.2330 -15.9602 -15.8294
   -13.8333 -13.7076 -13.6577 -13.5708 -13.5343 -13.3916 -13.2935 -13.2637
   -13.2535 -13.2415 -13.1895 -13.1331 -12.6087 -12.5854 -12.4976 -12.4651
   -12.4253 -12.3954 -12.2935 -12.2048  -2.3508  -1.9008  -1.8165  -1.7273
    -1.2779  -1.1044  -0.3677  -0.2559  -0.1169   0.0161   0.0558   0.0672
     0.3054   0.3289   1.2725   1.4165   2.9539   3.1807   3.2354   3.4438
     3.4682   3.7603   3.7725   3.8695   3.9661   4.0549   4.3171   4.3580
     4.4403   4.6280   4.7015   4.7341   5.0290   5.5758   5.7378   5.7514
    10.2570  10.7181  11.4906  11.9986  12.1435  12.3854  12.4291  12.5497
    12.9591  13.0149  13.1874  13.2214  13.3442  13.4486  13.5363  13.5589
    13.7705  13.9011  13.9265  13.9959  14.0864  14.1665  14.2420  14.3836
    14.4972  14.6026  16.3343  16.6641  16.8444  17.0354  17.3582  17.9372
    18.1984  18.7706  18.9049  19.0950  19.2514  19.3547  19.7747  20.0154
    20.1812  20.2546  20.4849  20.8288  21.0429  21.2355  21.3719  21.5494
    21.6038  21.6710  21.7775  21.9570  22.1100  22.4503  22.6044  22.8125
    22.9779  23.1700  23.2770  23.6955  24.5184  24.7245  25.1170  25.2343

          k = 0.0833 0.0954 0.2976 (  6434 PWs)   bands (ev):

   -32.2030 -32.2007 -32.1889 -32.1877 -16.2741 -16.2523 -15.9209 -15.8731
   -13.7837 -13.7314 -13.6447 -13.6226 -13.5039 -13.4484 -13.2596 -13.2514
   -13.2405 -13.2154 -13.1981 -13.1543 -12.6024 -12.5946 -12.5083 -12.4926
   -12.3801 -12.3489 -12.3078 -12.2541  -2.1928  -1.9979  -1.8352  -1.7719
    -1.2435  -1.1807  -0.2962  -0.2006  -0.1403  -0.0276   0.0750   0.0987
     0.2544   0.2579   1.3163   1.3688   3.2003   3.2582   3.3372   3.3801
     3.5276   3.6649   3.7378   3.7830   3.8537   3.9488   4.3621   4.4024
     4.4402   4.5373   4.7031   4.7150   5.2582   5.5177   5.6491   5.7119
    10.4170  10.5854  11.7040  11.9339  12.1883  12.3110  12.4274  12.5009
    12.9455  12.9899  13.2323  13.2638  13.4064  13.4240  13.5051  13.5855
    13.7223  13.8557  13.9564  14.0008  14.0186  14.1242  14.2047  14.3012
    14.5418  14.5904  16.5263  16.7770  17.0460  17.2936  17.3803  17.6131
    18.0862  18.2862  18.9136  19.0577  19.1419  19.1938  20.0080  20.0949
    20.2469  20.2961  20.5583  20.7467  21.0586  21.2527  21.4440  21.5432
    21.7600  21.8010  21.9251  21.9714  22.2666  22.3856  22.6046  22.6855
    22.9134  22.9622  23.0191  23.3962  24.5066  24.5734  25.2956  25.3759

          k = 0.0833 0.2862 0.0595 (  6405 PWs)   bands (ev):

   -32.2036 -32.1951 -32.1930 -32.1876 -16.3091 -16.2522 -15.9286 -15.7932
   -13.8544 -13.7561 -13.6674 -13.6104 -13.5166 -13.4742 -13.4504 -13.2970
   -13.2458 -13.2112 -13.1350 -13.0888 -12.5749 -12.5641 -12.5081 -12.4117
   -12.3930 -12.3452 -12.2887 -12.2194  -2.1446  -1.7348  -1.5381  -1.4645
    -1.2421  -1.0072  -0.5608  -0.4966  -0.2471   0.0250   0.1201   0.1693
     0.2257   0.3861   1.2903   1.4341   2.9625   3.1414   3.2280   3.3578
     3.3903   3.6941   3.7105   3.8117   4.0153   4.0430   4.0826   4.1825
     4.3711   4.6189   4.6735   4.6990   4.7981   5.3117   5.5767   5.5895
    10.4185  10.8493  11.5768  12.1146  12.2523  12.3819  12.4837  12.6894
    12.8925  13.0467  13.2376  13.2675  13.4012  13.4402  13.4742  13.5961
    13.8510  13.9045  13.9724  14.0374  14.0872  14.1766  14.3576  14.4857
    14.5137  14.7775  15.9445  16.3700  16.9989  17.1418  17.3446  17.6874
    18.2477  18.6584  19.0728  19.1242  19.2142  19.4844  19.6010  19.9351
    20.0554  20.3084  20.6810  21.2450  21.3094  21.5562  21.6243  21.7144
    21.8468  21.9335  21.9678  22.1543  22.2655  22.6192  22.6981  22.7905
    22.8775  23.5945  23.7501  23.8351  24.6122  24.7770  25.1109  25.1597

          k = 0.0833 0.2862 0.1785 (  6418 PWs)   bands (ev):

   -32.2029 -32.1973 -32.1912 -32.1880 -16.3021 -16.2604 -15.9117 -15.8128
   -13.8478 -13.7497 -13.6807 -13.6174 -13.5262 -13.5121 -13.3674 -13.2797
   -13.2514 -13.1858 -13.1506 -13.0862 -12.6300 -12.6175 -12.5111 -12.4604
   -12.3337 -12.3139 -12.2777 -12.2109  -2.0736  -1.6986  -1.5926  -1.5501
    -1.2297  -1.0634  -0.5358  -0.3600  -0.2874   0.0346   0.1214   0.1504
     0.2244   0.3431   1.3088   1.4136   3.0368   3.1510   3.2734   3.3551
     3.4115   3.5968   3.7264   3.8046   3.8290   4.0567   4.0879   4.2081
     4.3729   4.5355   4.7016   4.7293   4.9219   5.3886   5.4898   5.5895
    10.4774  10.7906  11.6625  12.1068  12.2384  12.3839  12.4605  12.6608
    12.9001  12.9780  13.2111  13.2527  13.4535  13.4905  13.5431  13.6113
    13.7861  13.8903  13.9731  14.0037  14.0656  14.1835  14.2267  14.5019
    14.5300  14.7439  16.0685  16.6734  16.8517  17.2034  17.4234  17.7102
    18.1009  18.5330  18.9155  19.1719  19.3656  19.4423  19.5088  19.8656
    20.1666  20.3981  20.8590  21.0728  21.1159  21.4688  21.7319  21.7404
    21.8025  21.9593  22.0328  22.2416  22.2874  22.4950  22.5434  22.8301
    22.8880  23.3605  23.6951  24.0288  24.5653  24.9773  25.0576  25.2477

          k = 0.0833 0.2862 0.2976 (  6412 PWs)   bands (ev):

   -32.2014 -32.1995 -32.1897 -32.1887 -16.2894 -16.2742 -15.8817 -15.8455
   -13.8236 -13.7856 -13.6487 -13.6297 -13.5539 -13.5280 -13.2829 -13.2492
   -13.2423 -13.1942 -13.1563 -13.1147 -12.6531 -12.6416 -12.5401 -12.5165
   -12.2910 -12.2733 -12.2605 -12.2223  -1.9412  -1.7680  -1.6424  -1.5892
    -1.1963  -1.1366  -0.4589  -0.3678  -0.1962  -0.0520   0.1742   0.1774
     0.2064   0.2648   1.3411   1.3793   3.1719   3.1924   3.2693   3.3526
     3.4638   3.5281   3.6054   3.6231   3.9413   4.0315   4.1160   4.1693
     4.3938   4.4498   4.7283   4.7403   5.1196   5.3244   5.4920   5.5629
    10.5773  10.6911  11.8083  11.9730  12.2986  12.3420  12.5249  12.6109
    12.8943  12.9404  13.1919  13.2153  13.4755  13.5090  13.5692  13.6715
    13.7639  13.8755  13.9348  14.0013  14.0136  14.0394  14.3352  14.4435
    14.6050  14.6887  16.2812  16.5490  17.0496  17.3485  17.6086  17.7498
    17.8678  18.1633  18.9398  19.0995  19.2990  19.3791  19.7006  19.8324
    20.3757  20.4691  20.9692  20.9992  21.0935  21.3512  21.4976  21.6630
    21.8464  21.8936  22.0779  22.2044  22.2772  22.3855  22.6486  22.7836
    23.1229  23.1917  23.7617  23.9916  24.6205  24.8166  25.1307  25.1805

          k = 0.0833 0.4770 0.0595 (  6403 PWs)   bands (ev):

   -32.2004 -32.1970 -32.1917 -32.1894 -16.3090 -16.2890 -15.8534 -15.8021
   -13.8129 -13.7700 -13.7266 -13.6584 -13.6197 -13.5757 -13.4471 -13.3629
   -13.2075 -13.1739 -13.1054 -13.0450 -12.5947 -12.5139 -12.4757 -12.4006
   -12.3577 -12.3499 -12.2553 -12.2253  -1.6976  -1.4525  -1.3670  -1.3559
    -1.1544  -1.0112  -0.6490  -0.5264  -0.4857  -0.1837   0.1720   0.1987
     0.2922   0.3803   1.3508   1.4031   3.0983   3.1344   3.2296   3.2352
     3.2988   3.4088   3.7054   3.7204   3.8187   3.9412   3.9482   4.0436
     4.4595   4.5432   4.6372   4.6460   4.8823   5.1868   5.2304   5.3696
    10.7132  10.8575  11.8068  12.0136  12.3962  12.4340  12.5217  12.7603
    12.8704  12.9813  13.3884  13.4472  13.4547  13.5465  13.5862  13.7162
    13.7799  13.8385  13.8839  13.9277  14.1079  14.3557  14.4299  14.4534
    14.5124  14.8901  15.8051  16.5065  16.5344  16.9533  17.5075  17.7694
    17.9565  18.2253  19.1773  19.2888  19.4097  19.4891  19.5638  19.7878
    20.1639  20.4005  20.9997  21.2303  21.4930  21.7091  21.9461  22.0650
    22.1681  22.2505  22.3258  22.4487  22.5335  22.6413  22.9712  23.1776
    23.6215  23.7894  23.9812  24.2010  24.4005  24.6812  24.8820  25.0536

          k = 0.0833 0.4770 0.1785 (  6401 PWs)   bands (ev):

   -32.2000 -32.1975 -32.1912 -32.1896 -16.3070 -16.2924 -15.8468 -15.8092
   -13.8327 -13.7868 -13.7120 -13.6933 -13.5976 -13.5725 -13.3537 -13.3114
   -13.2251 -13.1855 -13.1068 -13.0597 -12.6518 -12.5918 -12.5451 -12.4589
   -12.2995 -12.2884 -12.2109 -12.1932  -1.6810  -1.4467  -1.4312  -1.3725
    -1.1429  -1.0371  -0.5670  -0.4823  -0.4600  -0.1983   0.1880   0.2049
     0.2706   0.3481   1.3581   1.3962   3.0801   3.1046   3.1789   3.2347
     3.3683   3.3961   3.5630   3.6204   3.9004   3.9487   3.9809   4.0623
     4.3990   4.4508   4.7040   4.7168   4.9530   5.1724   5.3071   5.4071
    10.7162  10.8198  11.8363  11.9898  12.3689  12.3942  12.6020  12.7906
    12.8070  12.8906  13.3281  13.3721  13.5116  13.5943  13.6053  13.7183
    13.7355  13.8227  13.9137  13.9367  14.1442  14.3524  14.3789  14.4799
    14.6134  14.8607  15.7235  16.2052  16.8621  17.2056  17.5416  17.8689
    17.9155  18.3596  19.0598  19.2335  19.4352  19.4747  19.5811  19.7613
    20.1284  20.3014  20.9827  21.0562  21.2715  21.4193  22.0377  22.1315
    22.2171  22.2921  22.3826  22.5934  22.6702  22.8061  23.0073  23.1469
    23.4973  23.5398  23.9512  24.3215  24.3841  24.4515  24.7138  25.0784

          k = 0.0833 0.4770 0.2976 (  6393 PWs)   bands (ev):

   -32.1993 -32.1984 -32.1906 -32.1901 -16.3031 -16.2977 -15.8351 -15.8213
   -13.8258 -13.8057 -13.7375 -13.7374 -13.5465 -13.5266 -13.2728 -13.2699
   -13.2388 -13.2075 -13.1122 -13.0918 -12.6708 -12.6353 -12.5994 -12.5509
   -12.2425 -12.2365 -12.1879 -12.1790  -1.6356  -1.5541  -1.4044  -1.3843
    -1.1167  -1.0775  -0.5056  -0.4774  -0.3488  -0.2486   0.2152   0.2316
     0.2400   0.2914   1.3703   1.3841   3.0858   3.1107   3.1277   3.2165
     3.3862   3.4280   3.4521   3.4940   3.9477   3.9781   4.0205   4.0693
     4.3586   4.3754   4.7505   4.7562   5.0506   5.1298   5.3934   5.4295
    10.7317  10.7688  11.8873  11.9442  12.3545  12.3632  12.6781  12.7301
    12.8105  12.8401  13.2992  13.3153  13.5445  13.5801  13.6325  13.6768
    13.7637  13.8035  13.9120  13.9398  14.1886  14.2490  14.4363  14.4808
    14.7375  14.8225  15.7845  15.9529  17.1413  17.2710  17.6102  17.7192
    18.2211  18.5424  18.9035  19.1091  19.4556  19.5125  19.5716  19.6866
    20.1288  20.2055  20.8074  20.8267  21.2717  21.3154  22.1113  22.2000
    22.2500  22.2988  22.4848  22.6692  22.6867  22.7767  23.0460  23.1307
    23.3083  23.4051  24.1110  24.2259  24.3611  24.4759  24.9637  25.0823

          k = 0.2500 0.0954 0.0595 (  6413 PWs)   bands (ev):

   -32.2031 -32.1954 -32.1926 -32.1891 -16.2445 -16.1887 -16.0159 -15.8777
   -13.8485 -13.7468 -13.6752 -13.4917 -13.4710 -13.4103 -13.3238 -13.2786
   -13.2572 -13.2289 -13.1668 -13.1458 -12.6346 -12.5808 -12.5634 -12.5102
   -12.4325 -12.3117 -12.2998 -12.1666  -2.3445  -1.9409  -1.7670  -1.7250
    -0.9948  -0.7928  -0.3481  -0.3156  -0.0917  -0.0379   0.0012   0.0526
     0.3495   0.3777   0.9028   1.0029   2.7896   2.9446   3.2911   3.6274
     3.6659   3.7309   3.8746   4.0012   4.0665   4.1317   4.2935   4.3338
     4.3537   4.5539   4.6253   4.6679   4.9604   5.3873   5.8276   5.8733
    10.4037  10.7875  11.2491  11.9620  12.2251  12.3075  12.5639  12.6946
    12.7601  12.9789  13.1761  13.2452  13.3679  13.4761  13.5420  13.7743
    13.8867  13.8997  13.9656  14.0674  14.1970  14.2660  14.3301  14.3851
    14.4758  14.7058  15.7317  16.5086  16.5443  17.1504  17.4723  17.6033
    18.2524  18.6052  19.1627  19.3455  19.5144  19.8466  19.8819  20.1836
    20.2913  20.4677  20.5562  20.8617  20.9355  21.0409  21.3425  21.4007
    21.5127  21.5767  21.6806  21.8401  21.8842  22.1093  22.6170  22.6785
    23.2559  23.3363  23.4806  23.7111  24.2854  24.3314  24.8050  25.2461

          k = 0.2500 0.0954 0.1785 (  6410 PWs)   bands (ev):

   -32.2024 -32.1972 -32.1914 -32.1893 -16.2375 -16.1967 -15.9988 -15.8978
   -13.8130 -13.7264 -13.6547 -13.5512 -13.4855 -13.4328 -13.3128 -13.2839
   -13.2610 -13.2298 -13.1790 -13.1412 -12.6110 -12.5795 -12.5343 -12.4632
   -12.4276 -12.3409 -12.3152 -12.1991  -2.2683  -1.9090  -1.8148  -1.7809
    -0.9873  -0.8402  -0.3261  -0.2618  -0.1306   0.0012   0.0090   0.0428
     0.3084   0.3259   0.9114   0.9868   2.9470   3.0524   3.3398   3.5555
     3.6684   3.7628   3.8327   3.9222   3.9403   4.1075   4.2991   4.3530
     4.3603   4.5453   4.5991   4.6550   5.0841   5.4580   5.7502   5.7800
    10.4699  10.7485  11.3456  11.8706  12.2263  12.3375  12.5374  12.7061
    12.9069  13.0255  13.2156  13.2697  13.3967  13.4977  13.5677  13.7061
    13.8585  13.8849  14.0006  14.0083  14.0665  14.2091  14.2268  14.3721
    14.4159  14.6705  15.9387  16.6433  16.7718  17.0691  17.3198  17.5079
    18.2819  18.7195  18.9777  19.3232  19.4374  19.6033  19.9271  20.1649
    20.2819  20.3904  20.5168  20.8654  20.9882  21.2078  21.3925  21.5179
    21.5819  21.6468  21.7603  21.8766  22.0689  22.3441  22.5016  22.5537
    22.9587  23.1478  23.3291  23.5895  24.1547  24.5592  24.7830  25.2823

          k = 0.2500 0.0954 0.2976 (  6416 PWs)   bands (ev):

   -32.2010 -32.1991 -32.1904 -32.1897 -16.2251 -16.2102 -15.9681 -15.9313
   -13.7541 -13.7111 -13.6290 -13.6097 -13.5065 -13.4797 -13.3057 -13.2936
   -13.2378 -13.2119 -13.1956 -13.1641 -12.5786 -12.5687 -12.4969 -12.4557
   -12.4033 -12.3602 -12.3208 -12.2573  -2.1317  -1.9661  -1.8587  -1.8122
    -0.9599  -0.9058  -0.2802  -0.2209  -0.1492  -0.0659   0.0723   0.0895
     0.2490   0.2538   0.9314   0.9598   3.1892   3.2167   3.4156   3.4730
     3.5569   3.6418   3.8000   3.8616   3.9365   4.0326   4.3336   4.3505
     4.4026   4.4798   4.6064   4.6306   5.2980   5.5387   5.5733   5.6863
    10.5724  10.6735  11.5121  11.7051  12.2300  12.2737  12.6842  12.7243
    13.0325  13.1287  13.2286  13.2901  13.3990  13.5108  13.5816  13.6415
    13.7039  13.8495  13.9565  14.0323  14.0469  14.0922  14.2035  14.2787
    14.4787  14.5854  16.2655  16.6251  16.8429  17.0631  17.2989  17.5128
    18.3116  18.5685  18.9220  19.0473  19.4109  19.5466  20.0764  20.1589
    20.3007  20.3813  20.4848  20.6285  21.2113  21.3628  21.4560  21.5683
    21.7023  21.7728  21.8506  21.9474  22.1443  22.2289  22.3849  22.5730
    22.9001  23.0367  23.1129  23.4039  24.1395  24.3194  24.9927  25.1987

          k = 0.2500 0.2862 0.0595 (  6421 PWs)   bands (ev):

   -32.2015 -32.1948 -32.1933 -32.1897 -16.2481 -16.2098 -15.9749 -15.8701
   -13.9121 -13.8585 -13.6068 -13.5674 -13.4728 -13.4590 -13.3502 -13.2962
   -13.2386 -13.2105 -13.1292 -13.0984 -12.6604 -12.5748 -12.5383 -12.4614
   -12.4437 -12.3839 -12.2000 -12.1409  -2.0651  -1.7290  -1.5850  -1.4947
    -0.9467  -0.7534  -0.5007  -0.4512  -0.2391  -0.0443   0.0602   0.1081
     0.2639   0.3718   0.9352   1.0032   2.9124   2.9841   3.3440   3.4695
     3.5367   3.7732   3.8312   3.8510   3.9741   4.0617   4.1126   4.1416
     4.3535   4.5029   4.5921   4.6141   4.8483   5.2154   5.5856   5.6077
    10.6266  10.8849  11.3883  11.9546  12.2922  12.5057  12.5877  12.7670
    12.8900  13.0211  13.2652  13.3761  13.3984  13.5136  13.5288  13.6376
    13.8602  13.8753  13.9313  13.9572  14.0845  14.2027  14.4020  14.4361
    14.5151  15.1094  16.1536  16.2264  16.5321  17.2015  17.5619  17.7138
    17.7469  18.2307  18.9036  19.2841  19.3228  19.7079  19.9388  20.0678
    20.3261  20.5507  20.7551  21.0859  21.3814  21.4664  21.5594  21.6550
    21.7688  22.0452  22.1171  22.1586  22.2132  22.3275  22.5978  22.6713
    22.9797  23.3724  23.7417  23.8475  24.3135  24.3330  24.8538  25.2777

          k = 0.2500 0.2862 0.1785 (  6413 PWs)   bands (ev):

   -32.2009 -32.1965 -32.1920 -32.1899 -16.2437 -16.2157 -15.9620 -15.8854
   -13.8772 -13.8159 -13.6270 -13.5567 -13.5231 -13.4983 -13.3424 -13.2962
   -13.2377 -13.1903 -13.1447 -13.1150 -12.6686 -12.5836 -12.4985 -12.4791
   -12.3936 -12.3549 -12.2397 -12.1579  -2.0035  -1.7023  -1.6107  -1.5768
    -0.9394  -0.8055  -0.4847  -0.3612  -0.2647  -0.0241   0.0820   0.1101
     0.2407   0.3286   0.9432   0.9932   2.9909   3.0261   3.3797   3.4114
     3.5889   3.6243   3.7620   3.8570   3.9120   4.0845   4.1070   4.1695
     4.3528   4.4589   4.5984   4.6343   4.9691   5.3013   5.5039   5.5857
    10.6624  10.8494  11.4596  11.8720  12.2871  12.4207  12.6747  12.7530
    12.9305  13.0941  13.2531  13.3472  13.4311  13.5101  13.5854  13.6551
    13.7950  13.8426  13.9177  13.9768  14.0667  14.2432  14.2960  14.4755
    14.5015  14.8863  16.2714  16.3526  16.9224  17.0194  17.3374  17.6765
    17.7861  18.3395  19.0480  19.0859  19.2929  19.7703  19.9300  20.0899
    20.1598  20.5804  20.9471  20.9752  21.2484  21.4693  21.6476  21.6867
    21.7798  21.9273  22.1058  22.1599  22.2037  22.4810  22.5607  22.6864
    22.7599  23.3213  23.5076  23.8871  24.2753  24.5235  24.9454  25.3605

          k = 0.2500 0.2862 0.2976 (  6421 PWs)   bands (ev):

   -32.1997 -32.1982 -32.1910 -32.1903 -16.2356 -16.2254 -15.9389 -15.9110
   -13.8128 -13.7704 -13.6517 -13.6208 -13.5469 -13.5221 -13.3084 -13.2577
   -13.2416 -13.2208 -13.1673 -13.1360 -12.6423 -12.5975 -12.4977 -12.4635
   -12.3636 -12.3103 -12.2647 -12.2013  -1.8897  -1.7446  -1.6576  -1.6181
    -0.9149  -0.8668  -0.4353  -0.3724  -0.1882  -0.0804   0.1480   0.1533
     0.1987   0.2492   0.9577   0.9762   3.1118   3.1330   3.2881   3.4056
     3.5104   3.6272   3.6583   3.7452   4.0268   4.1022   4.1060   4.1353
     4.3606   4.3992   4.6214   4.6371   5.1564   5.3465   5.4273   5.5262
    10.7223  10.7900  11.5859  11.7365  12.2950  12.3375  12.7321  12.7415
    13.0580  13.1895  13.2035  13.3174  13.4422  13.4703  13.5988  13.6820
    13.7902  13.8337  13.9069  13.9821  14.0396  14.1125  14.3424  14.4391
    14.5663  14.7030  16.4774  16.5568  16.7904  16.9479  17.4328  17.6065
    17.9396  18.3239  18.8158  18.9635  19.5142  19.7334  19.8989  19.9726
    20.3925  20.6741  20.8616  21.0103  21.1630  21.3325  21.6453  21.7427
    21.8217  21.8957  22.0341  22.1500  22.2889  22.3271  22.4480  22.5504
    23.0669  23.1602  23.5479  23.8481  24.3454  24.5013  24.9637  25.0876

          k = 0.2500 0.4770 0.0595 (  6395 PWs)   bands (ev):

   -32.1989 -32.1962 -32.1924 -32.1908 -16.2481 -16.2350 -15.9175 -15.8776
   -13.8900 -13.8544 -13.7657 -13.7120 -13.5097 -13.4614 -13.3278 -13.2709
   -13.1975 -13.1588 -13.1309 -13.0610 -12.6865 -12.6422 -12.5371 -12.4608
   -12.3728 -12.2514 -12.2112 -12.1597  -1.6473  -1.4514  -1.3785  -1.3595
    -0.8719  -0.7558  -0.5954  -0.5057  -0.4581  -0.2342   0.1357   0.2002
     0.2333   0.3431   0.9738   0.9972   3.0118   3.0413   3.1848   3.2466
     3.4927   3.6165   3.7180   3.7621   3.9134   3.9609   3.9729   4.0582
     4.4205   4.4672   4.5382   4.5575   4.9225   5.1748   5.2082   5.3448
    10.8656  10.9533  11.5826  11.7887  12.3778  12.4791  12.7528  12.8097
    13.0044  13.1633  13.3608  13.4262  13.5038  13.5326  13.6139  13.6919
    13.7633  13.7833  13.8454  13.8705  14.2438  14.3501  14.4313  14.4435
    14.4948  15.1325  16.0934  16.6067  16.7138  16.8924  17.1967  17.4570
    17.7938  17.9913  18.9874  19.1439  19.2259  19.4276  19.8670  19.9931
    20.6002  20.6653  20.9047  21.0949  21.5607  21.8802  21.9114  22.0306
    22.0991  22.2782  22.3706  22.4407  22.5751  22.6734  22.9070  23.2222
    23.4492  23.5736  23.8042  24.0704  24.2224  24.4032  24.8028  25.0044

          k = 0.2500 0.4770 0.1785 (  6399 PWs)   bands (ev):

   -32.1986 -32.1967 -32.1921 -32.1910 -16.2474 -16.2378 -15.9130 -15.8839
   -13.8738 -13.8193 -13.7149 -13.6445 -13.5905 -13.5554 -13.3040 -13.2573
   -13.2405 -13.1952 -13.1172 -13.0798 -12.7028 -12.6386 -12.4376 -12.4273
   -12.3732 -12.3190 -12.2095 -12.1582  -1.6338  -1.4378  -1.4320  -1.3825
    -0.8655  -0.7864  -0.5419  -0.4731  -0.4107  -0.2284   0.1517   0.1942
     0.2216   0.3129   0.9792   0.9959   3.0041   3.0290   3.1336   3.2210
     3.5036   3.5905   3.6426   3.7248   3.9067   3.9423   4.0214   4.1156
     4.3593   4.3890   4.5997   4.6205   4.9898   5.1959   5.2520   5.3740
    10.8616  10.9241  11.6110  11.7634  12.3633  12.4261  12.7423  12.7661
    13.0550  13.1993  13.2856  13.3562  13.5117  13.5826  13.6341  13.6806
    13.7273  13.7894  13.8723  13.8917  14.2599  14.3835  14.3953  14.4929
    14.5853  14.9960  15.9377  16.3748  16.8545  17.1739  17.3844  17.6825
    17.7580  17.9149  18.9413  19.1044  19.2091  19.4921  19.9398  19.9986
    20.4150  20.6526  20.9548  21.0819  21.3194  21.6295  21.9064  21.9529
    22.1893  22.3441  22.4055  22.5649  22.6603  22.7574  22.9097  23.1074
    23.3627  23.4590  23.6820  24.0444  24.0633  24.3726  24.8310  24.9399

          k = 0.2500 0.4770 0.2976 (  6406 PWs)   bands (ev):

   -32.1980 -32.1974 -32.1917 -32.1913 -16.2453 -16.2418 -15.9047 -15.8940
   -13.8160 -13.7728 -13.7081 -13.6854 -13.5867 -13.5420 -13.3671 -13.3123
   -13.2310 -13.2240 -13.1166 -13.1029 -12.6374 -12.5644 -12.5311 -12.4523
   -12.3138 -12.2697 -12.2328 -12.1884  -1.5953  -1.5254  -1.4131  -1.3949
    -0.8508  -0.8234  -0.4891  -0.4640  -0.3197  -0.2490   0.1775   0.1943
     0.2142   0.2609   0.9865   0.9925   3.0058   3.0432   3.0865   3.1637
     3.4772   3.5276   3.6477   3.6867   3.9061   3.9260   4.1013   4.1408
     4.3173   4.3266   4.6436   4.6518   5.0828   5.1573   5.3410   5.3850
    10.8652  10.8875  11.6602  11.7165  12.3565  12.3760  12.7171  12.7219
    13.1434  13.2219  13.2460  13.2924  13.5271  13.5746  13.6335  13.6751
    13.7467  13.7936  13.8696  13.9035  14.2816  14.3278  14.4532  14.5027
    14.7093  14.8396  15.9759  16.1333  17.0030  17.1812  17.5522  17.5813
    17.9869  18.3939  18.5677  18.8431  19.3996  19.5048  19.9594  19.9848
    20.4374  20.6771  20.7755  20.9563  21.3488  21.5304  21.8266  21.8709
    22.2796  22.2979  22.5321  22.6305  22.6871  22.7596  22.8683  22.9500
    23.2151  23.3216  23.7982  23.9176  24.2757  24.3578  24.7781  24.8863

          k = 0.4167 0.0954 0.0595 (  6413 PWs)   bands (ev):

   -32.1989 -32.1952 -32.1933 -32.1928 -16.1494 -16.1212 -16.0745 -15.9988
   -13.8307 -13.7994 -13.6168 -13.5397 -13.4272 -13.3847 -13.3420 -13.3231
   -13.2382 -13.2157 -13.1403 -13.1315 -12.6693 -12.6436 -12.5647 -12.5404
   -12.3856 -12.3409 -12.2271 -12.1789  -2.1838  -2.0133  -1.8032  -1.7637
    -0.4611  -0.4319  -0.3250  -0.1488  -0.1195  -0.0689  -0.0331  -0.0035
     0.2998   0.3454   0.3718   0.4014   2.7972   2.8397   3.4813   3.6188
     3.8474   3.8878   3.9728   4.0303   4.0729   4.1740   4.2144   4.2616
     4.3652   4.4250   4.4696   4.5309   5.0747   5.2240   5.8674   5.8785
    10.7885  10.9251  11.0143  11.4417  12.2161  12.3711  12.6597  12.7050
    13.0217  13.1663  13.2055  13.2926  13.3278  13.4964  13.5761  13.8662
    13.8885  13.9153  14.0028  14.0624  14.2400  14.2509  14.3416  14.4372
    14.5109  14.7724  15.4206  16.3217  16.8997  16.9020  17.3340  17.3648
    18.5192  18.7467  18.8440  19.2105  19.5574  20.0828  20.1354  20.3249
    20.3859  20.4842  20.7715  20.8361  20.8848  21.0514  21.1938  21.3988
    21.6349  21.7163  21.7394  21.8517  21.9664  22.0724  22.4908  22.5130
    23.0522  23.2524  23.5131  23.5915  23.5974  23.8374  24.9498  25.1783

          k = 0.4167 0.0954 0.1785 (  6417 PWs)   bands (ev):

   -32.1984 -32.1958 -32.1932 -32.1927 -16.1464 -16.1262 -16.0643 -16.0094
   -13.7892 -13.7606 -13.6044 -13.5478 -13.4511 -13.4230 -13.3731 -13.3638
   -13.2343 -13.2200 -13.1582 -13.1435 -12.6079 -12.5793 -12.5476 -12.5025
   -12.3951 -12.3575 -12.2634 -12.2163  -2.1278  -1.9795  -1.8245  -1.8173
    -0.4710  -0.4548  -0.2981  -0.1746  -0.1541  -0.0367   0.0008   0.0188
     0.3046   0.3106   0.3250   0.3771   2.9461   2.9722   3.5179   3.6153
     3.7559   3.8087   3.8728   3.9989   4.0552   4.2129   4.2356   4.2471
     4.3254   4.4302   4.4705   4.5306   5.1836   5.3142   5.7703   5.7848
    10.8126  10.9145  11.0738  11.3913  12.2199  12.3260  12.7020  12.7487
    13.0852  13.2374  13.2744  13.3501  13.4076  13.5025  13.6107  13.7997
    13.8596  13.9073  14.0302  14.0494  14.1730  14.1872  14.2765  14.3453
    14.4939  14.9807  15.1524  16.0582  17.0098  17.1281  17.3223  17.4542
    18.5500  18.7976  18.8652  19.1442  19.6497  19.7234  20.0803  20.1442
    20.2984  20.3506  20.7321  20.8933  21.0010  21.2250  21.3353  21.5544
    21.6904  21.7422  21.7910  21.9550  22.0171  22.2615  22.3331  22.4402
    22.9941  23.1574  23.3520  23.4654  23.6223  23.8376  24.8982  25.1395

          k = 0.4167 0.0954 0.2976 (  6433 PWs)   bands (ev):

   -32.1976 -32.1967 -32.1930 -32.1928 -16.1409 -16.1336 -16.0472 -16.0273
   -13.7232 -13.7056 -13.5848 -13.5693 -13.5162 -13.5051 -13.3831 -13.3720
   -13.2193 -13.2099 -13.1803 -13.1694 -12.5552 -12.5440 -12.4732 -12.4434
   -12.4082 -12.3873 -12.3098 -12.2787  -2.0305  -1.9337  -1.9054  -1.8649
    -0.4834  -0.4718  -0.2735  -0.2275  -0.1238  -0.0722   0.0717   0.0783
     0.2428   0.2470   0.3318   0.3508   3.1776   3.1826   3.5260   3.5588
     3.5774   3.6378   3.8812   3.9291   4.1127   4.1831   4.2503   4.2844
     4.3057   4.3706   4.5017   4.5220   5.3702   5.4644   5.5876   5.6385
    10.8512  10.8895  11.1753  11.2931  12.2419  12.2812  12.7367  12.7625
    13.2173  13.3254  13.3430  13.4249  13.4550  13.5178  13.7006  13.7477
    13.7754  13.8839  14.0266  14.0557  14.0965  14.1149  14.2028  14.2396
    14.5939  14.8266  15.2967  15.6737  17.1366  17.2375  17.4167  17.5088
    18.6705  18.8084  18.9404  19.1576  19.2935  19.5094  20.0353  20.0876
    20.2510  20.2784  20.7445  20.8134  21.2868  21.4161  21.5404  21.6095
    21.6892  21.7675  21.8816  21.9330  22.0730  22.1300  22.3179  22.5560
    22.9262  23.0487  23.1276  23.3429  23.7031  23.7926  24.8000  24.8876

          k = 0.4167 0.2862 0.0595 (  6413 PWs)   bands (ev):

   -32.1979 -32.1947 -32.1938 -32.1929 -16.1464 -16.1267 -16.0535 -15.9957
   -13.9429 -13.9257 -13.5826 -13.5675 -13.4407 -13.3884 -13.3174 -13.2387
   -13.2194 -13.1996 -13.1335 -13.1169 -12.7255 -12.6682 -12.5445 -12.5044
   -12.4355 -12.4009 -12.1318 -12.1102  -1.9277  -1.7806  -1.6105  -1.5519
    -0.4687  -0.4280  -0.3930  -0.2434  -0.1958  -0.1414   0.0077   0.0394
     0.2640   0.3208   0.3504   0.4206   2.8823   2.8997   3.4527   3.5148
     3.6721   3.8201   3.8575   3.9555   4.0582   4.1073   4.1855   4.2466
     4.2728   4.3395   4.4028   4.4553   4.9483   5.0800   5.6020   5.6134
    10.9302  11.0752  11.1496  11.5311  12.3079  12.4509  12.6646  12.7394
    12.9933  13.2110  13.2748  13.3963  13.5011  13.5714  13.5948  13.7871
    13.8053  13.8701  13.9061  13.9259  14.2196  14.2385  14.4002  14.4849
    14.5093  15.1552  15.9139  16.5746  16.7638  17.0402  17.2838  17.4470
    17.7987  18.1261  18.4862  19.0392  19.7127  19.8121  19.8660  20.1363
    20.5378  20.7464  21.0208  21.1759  21.4547  21.4674  21.5404  21.6687
    21.8876  21.9451  22.0567  22.0961  22.2841  22.3168  22.5672  22.5944
    23.0576  23.2645  23.5703  23.7165  23.8196  23.8817  24.9309  25.0945

          k = 0.4167 0.2862 0.1785 (  6431 PWs)   bands (ev):

   -32.1976 -32.1953 -32.1935 -32.1929 -16.1449 -16.1307 -16.0465 -16.0044
   -13.8906 -13.8708 -13.5702 -13.5380 -13.5094 -13.4298 -13.4016 -13.2883
   -13.2241 -13.1876 -13.1531 -13.1317 -12.6635 -12.5847 -12.5203 -12.4595
   -12.4427 -12.3978 -12.1801 -12.1474  -1.8838  -1.7565  -1.6285  -1.6031
    -0.5031  -0.4339  -0.3953  -0.2407  -0.2015  -0.0916   0.0445   0.0621
     0.2422   0.3010   0.3390   0.4030   2.9575   2.9627   3.4427   3.4865
     3.6180   3.7013   3.8221   3.9481   4.0731   4.1086   4.1897   4.2423
     4.2824   4.3252   4.4156   4.4573   5.0597   5.1785   5.5332   5.5654
    10.9454  11.0495  11.1975  11.4745  12.3095  12.4013  12.6819  12.7241
    13.0378  13.2261  13.3607  13.4456  13.4603  13.5413  13.6818  13.7525
    13.7838  13.8147  13.9055  13.9426  14.2229  14.2745  14.3844  14.4819
    14.5581  15.2922  15.5239  16.3562  16.8208  17.1137  17.3463  17.4730
    17.8897  18.2835  18.7097  19.0365  19.5530  19.8507  19.8869  19.9925
    20.6401  20.7155  20.8623  21.1599  21.3754  21.4364  21.6638  21.7389
    21.8173  21.8854  22.0173  22.0975  22.3290  22.4244  22.4668  22.5165
    22.9973  23.2391  23.4094  23.7020  23.8463  23.8840  25.0491  25.2390

          k = 0.4167 0.2862 0.2976 (  6417 PWs)   bands (ev):

   -32.1969 -32.1961 -32.1932 -32.1930 -16.1416 -16.1364 -16.0340 -16.0187
   -13.7989 -13.7808 -13.6265 -13.6128 -13.5170 -13.4770 -13.4047 -13.3459
   -13.2206 -13.2061 -13.1601 -13.1469 -12.5957 -12.5523 -12.4718 -12.4471
   -12.4051 -12.3499 -12.2525 -12.2160  -1.8059  -1.7337  -1.6770  -1.6565
    -0.5125  -0.4860  -0.3494  -0.2904  -0.1437  -0.0961   0.1166   0.1291
     0.1917   0.2281   0.3538   0.3765   3.0808   3.0942   3.3185   3.3694
     3.5958   3.6482   3.8291   3.8819   4.1039   4.1171   4.2108   4.2530
     4.2656   4.2971   4.4349   4.4518   5.2281   5.3193   5.4079   5.4676
    10.9746  11.0124  11.2799  11.3809  12.3192  12.3493  12.6984  12.7096
    13.1370  13.2470  13.3226  13.4030  13.5418  13.5889  13.6908  13.7184
    13.7675  13.7803  13.9392  13.9571  14.2425  14.2792  14.3757  14.4231
    14.7505  15.0750  15.6041  15.9727  16.9042  17.0255  17.4555  17.4739
    18.2064  18.3899  18.8936  19.0964  19.3181  19.6498  19.8977  19.9220
    20.7959  20.8279  20.9096  21.0962  21.2186  21.3224  21.6528  21.7192
    21.9061  21.9251  22.0199  22.0921  22.2621  22.3124  22.3539  22.3956
    23.1534  23.2172  23.3865  23.6434  23.9144  23.9455  24.9941  25.0416

          k = 0.4167 0.4770 0.0595 (  6388 PWs)   bands (ev):

   -32.1964 -32.1949 -32.1938 -32.1932 -16.1419 -16.1349 -16.0239 -16.0018
   -13.9284 -13.9148 -13.7873 -13.7679 -13.3871 -13.3077 -13.2688 -13.2333
   -13.1865 -13.1556 -13.1227 -13.0918 -12.7553 -12.6864 -12.6573 -12.5773
   -12.2882 -12.2396 -12.1569 -12.1334  -1.5619  -1.4731  -1.3981  -1.3745
    -0.5374  -0.5056  -0.4604  -0.3411  -0.2826  -0.2384   0.1152   0.1528
     0.2093   0.2877   0.3559   0.3985   2.9724   2.9837   3.1890   3.2201
     3.6390   3.6980   3.7621   3.8024   4.0379   4.0493   4.1337   4.2119
     4.2879   4.2980   4.3557   4.4125   4.9961   5.0875   5.2508   5.3014
    11.0963  11.1734  11.3335  11.4950  12.4368  12.5672  12.6133  12.7109
    13.1437  13.3307  13.3982  13.4322  13.4745  13.5405  13.5786  13.6226
    13.7376  13.7893  13.8606  13.8806  14.3573  14.3891  14.4364  14.4444
    14.8774  15.7854  15.8021  16.4651  16.7721  17.1040  17.2116  17.4243
    17.6181  17.8772  18.1328  18.6468  19.4894  19.5479  19.7122  19.8622
    20.9317  21.0888  21.2088  21.3492  21.7073  21.7267  21.8332  21.9422
    22.2182  22.2744  22.3499  22.4964  22.5193  22.6997  22.7977  22.9960
    23.5008  23.5385  23.6832  23.9228  24.1169  24.2390  24.7416  24.8901

          k = 0.4167 0.4770 0.1785 (  6401 PWs)   bands (ev):

   -32.1962 -32.1952 -32.1936 -32.1932 -16.1424 -16.1373 -16.0223 -16.0062
   -13.8798 -13.8510 -13.7431 -13.7063 -13.4859 -13.4206 -13.3620 -13.2776
   -13.2017 -13.1869 -13.1400 -13.1193 -12.6704 -12.5816 -12.5571 -12.4760
   -12.3360 -12.2726 -12.2080 -12.1650  -1.5540  -1.4713  -1.4157  -1.4052
    -0.5263  -0.5101  -0.4496  -0.3359  -0.2317  -0.2126   0.1263   0.1440
     0.2049   0.2598   0.3684   0.3975   2.9627   2.9778   3.1318   3.1723
     3.6211   3.6860   3.7399   3.8274   3.9861   4.0091   4.1703   4.2202
     4.2521   4.2732   4.4113   4.4476   5.0662   5.1621   5.2500   5.3162
    11.0935  11.1480  11.3498  11.4673  12.4258  12.4978  12.6187  12.6677
    13.1610  13.3013  13.3701  13.4037  13.5193  13.5538  13.5957  13.6319
    13.7303  13.8054  13.8446  13.8875  14.3959  14.4266  14.4788  14.4914
    14.9541  15.6520  15.8717  16.2745  16.7105  16.9229  17.0094  17.3043
    17.8935  18.2386  18.6030  18.8355  19.3859  19.5335  19.7373  19.8324
    20.8214  20.9333  21.0967  21.3164  21.4933  21.6728  21.7493  21.8263
    22.3178  22.3710  22.4166  22.5564  22.6213  22.6497  22.7372  22.8380
    23.4080  23.4848  23.6317  23.7321  23.9809  24.1747  24.8518  24.9358

          k = 0.4167 0.4770 0.2976 (  6421 PWs)   bands (ev):

   -32.1959 -32.1956 -32.1935 -32.1933 -16.1422 -16.1403 -16.0186 -16.0127
   -13.7842 -13.7473 -13.6784 -13.6450 -13.5874 -13.5333 -13.4853 -13.4163
   -13.1986 -13.1948 -13.1422 -13.1360 -12.5442 -12.4709 -12.4316 -12.4189
   -12.3796 -12.3157 -12.2924 -12.2332  -1.5304  -1.4912  -1.4372  -1.4244
    -0.5284  -0.5158  -0.4021  -0.3527  -0.1869  -0.1786   0.1398   0.1447
     0.1987   0.2213   0.3818   0.3920   2.9743   2.9962   3.0588   3.0936
     3.6123   3.6416   3.7755   3.8175   3.9572   3.9727   4.1804   4.1935
     4.2621   4.2790   4.4527   4.4661   5.1569   5.2201   5.2573   5.3097
    11.0974  11.1167  11.3812  11.4239  12.4200  12.4412  12.6126  12.6258
    13.2006  13.2577  13.3386  13.3639  13.5616  13.5754  13.6087  13.6269
    13.7658  13.7998  13.8519  13.8708  14.4435  14.4588  14.5122  14.5245
    15.1236  15.3764  16.0308  16.1862  16.6090  16.7004  16.9685  17.1135
    18.4257  18.5817  18.8769  18.9855  19.2504  19.4732  19.7427  19.7543
    20.7078  20.8283  21.0611  21.1218  21.4730  21.5561  21.6824  21.7434
    22.3117  22.3369  22.5032  22.5378  22.6113  22.6694  22.7098  22.8117
    23.2886  23.3517  23.6060  23.6588  24.1399  24.2269  24.7667  24.8101

     the Fermi energy is     7.4837 ev

!    total energy              =    -733.79927876 Ry
     Harris-Foulkes estimate   =    -733.79927489 Ry
     estimated scf accuracy    <          7.4E-09 Ry

     The total energy is the sum of the following terms:

     one-electron contribution =    -236.57041265 Ry
     hartree contribution      =     182.63081482 Ry
     xc contribution           =    -149.45742531 Ry
     ewald contribution        =    -530.40225562 Ry
     smearing contrib. (-TS)   =      -0.00000000 Ry

     convergence has been achieved in  11 iterations

     Writing output data file CaCO3.save/
 
     init_run     :      1.43s CPU      1.54s WALL (       1 calls)
     electrons    :     61.60s CPU     63.75s WALL (       1 calls)

     Called by init_run:
     wfcinit      :      1.08s CPU      1.16s WALL (       1 calls)
     potinit      :      0.07s CPU      0.07s WALL (       1 calls)
     hinit0       :      0.15s CPU      0.18s WALL (       1 calls)

     Called by electrons:
     c_bands      :     55.86s CPU     57.60s WALL (      11 calls)
     sum_band     :      5.14s CPU      5.52s WALL (      11 calls)
     v_of_rho     :      0.12s CPU      0.12s WALL (      12 calls)
     newd         :      0.50s CPU      0.51s WALL (      12 calls)
     mix_rho      :      0.02s CPU      0.02s WALL (      11 calls)

     Called by c_bands:
     init_us_2    :      0.43s CPU      0.45s WALL (     621 calls)
     cegterg      :     54.11s CPU     55.82s WALL (     297 calls)

     Called by sum_band:
     sum_band:bec :      0.07s CPU      0.08s WALL (     297 calls)
     addusdens    :      0.60s CPU      0.63s WALL (      11 calls)

     Called by *egterg:
     h_psi        :     18.33s CPU     19.65s WALL (    1027 calls)
     s_psi        :      1.81s CPU      1.82s WALL (    1027 calls)
     g_psi        :      0.07s CPU      0.07s WALL (     703 calls)
     cdiaghg      :     28.51s CPU     28.61s WALL (    1000 calls)

     Called by h_psi:
     h_psi:pot    :     18.16s CPU     19.47s WALL (    1027 calls)
     h_psi:calbec :      1.91s CPU      2.18s WALL (    1027 calls)
     vloc_psi     :     14.39s CPU     15.41s WALL (    1027 calls)
     add_vuspsi   :      1.85s CPU      1.87s WALL (    1027 calls)

     General routines
     calbec       :      2.68s CPU      3.06s WALL (    1324 calls)
     fft          :      0.07s CPU      0.10s WALL (     154 calls)
     ffts         :      0.00s CPU      0.00s WALL (      23 calls)
     fftw         :     15.70s CPU     16.80s WALL (  216992 calls)
     interpolate  :      0.01s CPU      0.01s WALL (      12 calls)
 
     Parallel routines
     fft_scatt_xy :      2.08s CPU      2.22s WALL (  217169 calls)
     fft_scatt_yz :      6.34s CPU      6.78s WALL (  217169 calls)
 
     PWSCF        :   1m 3.31s CPU   1m 7.35s WALL

 
   This run was terminated on:  15:53:22  19Apr2021            

=------------------------------------------------------------------------------=
   JOB DONE.
=------------------------------------------------------------------------------=
